ITEM: TIMESTEP
0
ITEM: BOX BOUNDS ff ff ff
-1.2047208786010742e+01 1.1994331359863281e+01
-1.2117047309875488e+01 1.1989809036254883e+01
-1.2101036071777344e+01 1.1929636001586914e+01
ITEM: DIMENSION
3
ITEM: GRID SIZE nx ny nz
25 25 25
ITEM: GRID CELLS c_esp:esp:data
-1.3484
-0.638042
-0.402083
-0.288261
-0.22395
-0.182981
-0.154661
-0.133928
-0.118097
-0.105613
-0.0955174
-0.087184
-0.0801885
-0.0742327
-0.0691006
-0.0646325
-0.0607073
-0.0572317
-0.0541326
-0.051352
-0.0488431
-0.0465681
-0.0444955
-0.0425996
-0.0408587
-0.642475
-0.475082
-0.347501
-0.266254
-0.213378
-0.17719
-0.15117
-0.13167
-0.116554
-0.104514
-0.0947071
-0.0865697
-0.0797119
-0.0738554
-0.068797
-0.0643846
-0.0605022
-0.0570601
-0.0539876
-0.0512284
-0.0487369
-0.046476
-0.0444153
-0.0425293
-0.0407968
-0.398608
-0.347117
-0.286121
-0.235188
-0.196351
-0.167105
-0.144788
-0.127406
-0.113576
-0.102358
-0.0930984
-0.0853388
-0.0787498
-0.0730896
-0.0681777
-0.0638767
-0.0600807
-0.0567065
-0.0536881
-0.0509725
-0.0485165
-0.046285
-0.0442486
-0.042383
-0.0406676
-0.287392
-0.266065
-0.235206
-0.204224
-0.177176
-0.154794
-0.136563
-0.121701
-0.109485
-0.0993375
-0.0908116
-0.0835695
-0.0773547
-0.0719713
-0.0672682
-0.0631275
-0.0594565
-0.0561811
-0.0532419
-0.0505903
-0.0481868
-0.0459986
-0.0439983
-0.0421629
-0.0404731
-0.22417
-0.213557
-0.1965
-0.177257
-0.158652
-0.141961
-0.127503
-0.115157
-0.10465
-0.0956856
-0.0879983
-0.081363
-0.075596
-0.0705493
-0.0661035
-0.0621625
-0.0586486
-0.0554983
-0.0526599
-0.0500904
-0.0477544
-0.0456221
-0.0436686
-0.0418726
-0.0402162
-0.183543
-0.177573
-0.167366
-0.154954
-0.142033
-0.129666
-0.118363
-0.108288
-0.0994136
-0.0916345
-0.0848173
-0.0788297
-0.073552
-0.0688799
-0.0647248
-0.0610123
-0.05768
-0.0546757
-0.0519558
-0.0494835
-0.0472278
-0.0451624
-0.0432649
-0.0415164
-0.0399004
-0.155295
-0.151629
-0.145112
-0.136779
-0.12763
-0.118419
-0.109617
-0.101466
-0.0940557
-0.0873872
-0.0814158
-0.076077
-0.0713012
-0.0670213
-0.0631757
-0.0597099
-0.0565761
-0.053733
-0.051145
-0.0487816
-0.0466165
-0.0446271
-0.0427937
-0.0410996
-0.03953
-0.13454
-0.132138
-0.127753
-0.121948
-0.115321
-0.108384
-0.101508
-0.0949299
-0.0887773
-0.0831043
-0.0779184
-0.0732001
-0.0689167
-0.0650296
-0.0614995
-0.0582889
-0.055363
-0.0526906
-0.0502438
-0.047998
-0.0459313
-0.0440249
-0.042262
-0.0406279
-0.0391098
-0.118657
-0.117001
-0.113923
-0.109744
-0.104835
-0.0995367
-0.0941282
-0.0888091
-0.0837091
-0.0789021
-0.0744226
-0.0702786
-0.066462
-0.0629553
-0.0597362
-0.0567811
-0.0540663
-0.0515692
-0.0492688
-0.0471458
-0.045183
-0.0433647
-0.041677
-0.0401074
-0.0386449
-0.106116
-0.104929
-0.102691
-0.0995966
-0.0958803
-0.0917741
-0.0874806
-0.0831596
-0.0789265
-0.074858
-0.0709997
-0.0673745
-0.0639896
-0.0608418
-0.0579216
-0.055216
-0.05271
-0.0503883
-0.048236
-0.0462385
-0.0443825
-0.0426556
-0.0410464
-0.0395445
-0.0381406
-0.0959655
-0.0950862
-0.0934111
-0.0910631
-0.0881948
-0.0849655
-0.0815226
-0.0779902
-0.0744654
-0.0710188
-0.0676983
-0.0645336
-0.0615405
-0.058725
-0.0560862
-0.053619
-0.0513154
-0.0491659
-0.0471604
-0.0452886
-0.0435405
-0.0419065
-0.0403776
-0.0389455
-0.0376023
-0.087583
-0.0869141
-0.0856295
-0.0838093
-0.0815562
-0.0789812
-0.0761917
-0.0732832
-0.0703348
-0.0674082
-0.0645487
-0.0617877
-0.0591453
-0.0566327
-0.0542549
-0.0520122
-0.0499016
-0.0479182
-0.0460559
-0.0443078
-0.0426668
-0.0411258
-0.0396779
-0.0383165
-0.0370353
-0.0805445
-0.080024
-0.0790182
-0.0775809
-0.0757828
-0.0737028
-0.0714198
-0.0690069
-0.0665277
-0.0640342
-0.0615674
-0.0591574
-0.0568257
-0.0545863
-0.0524475
-0.0504133
-0.0484843
-0.0466592
-0.0449347
-0.0433068
-0.0417707
-0.0403216
-0.0389543
-0.0376636
-0.0364448
-0.0745513
-0.0741385
-0.0733367
-0.0721833
-0.0707279
-0.0690275
-0.0671408
-0.0651238
-0.0630272
-0.0608944
-0.0587609
-0.0566545
-0.0545963
-0.0526011
-0.0506792
-0.0488367
-0.0470769
-0.0454007
-0.0438074
-0.0422949
-0.0408606
-0.0395011
-0.0382129
-0.0369923
-0.0358356
-0.0693869
-0.0690541
-0.068405
-0.0674661
-0.0662731
-0.0648678
-0.0632941
-0.0615954
-0.0598121
-0.0579799
-0.056129
-0.0542843
-0.0524654
-0.0506873
-0.0489608
-0.0472934
-0.0456899
-0.0441528
-0.042683
-0.0412804
-0.0399436
-0.0386708
-0.0374598
-0.0363078
-0.0352122
-0.0648907
-0.0646186
-0.064086
-0.063312
-0.0623228
-0.0611496
-0.0598257
-0.0583849
-0.0568592
-0.0552779
-0.0536667
-0.0520473
-0.0504375
-0.0488516
-0.0473003
-0.0457916
-0.0443314
-0.0429232
-0.0415691
-0.0402702
-0.0390262
-0.0378366
-0.0367
-0.0356147
-0.0345789
-0.0609411
-0.0607158
-0.0602734
-0.0596282
-0.0587997
-0.0578112
-0.0566885
-0.055458
-0.0541452
-0.0527742
-0.0513666
-0.0499411
-0.0485136
-0.0470972
-0.0457023
-0.0443371
-0.0430076
-0.0417182
-0.0404718
-0.03927
-0.0381139
-0.0370034
-0.0359381
-0.0349172
-0.0339395
-0.0574443
-0.0572556
-0.0568843
-0.056341
-0.0556405
-0.0548007
-0.0538414
-0.0527836
-0.0516479
-0.0504538
-0.0492194
-0.0479609
-0.0466922
-0.0454253
-0.0441698
-0.0429337
-0.0417231
-0.0405426
-0.0393958
-0.0382848
-0.0372111
-0.0361756
-0.0351783
-0.0342191
-0.0332973
-0.0543266
-0.054167
-0.0538524
-0.0533908
-0.0527935
-0.0520745
-0.0512492
-0.0503343
-0.0493465
-0.0483017
-0.0472152
-0.0461008
-0.0449706
-0.0438353
-0.0427038
-0.0415836
-0.0404808
-0.0393999
-0.0383448
-0.0373181
-0.0363216
-0.0353567
-0.0344239
-0.0335235
-0.0326554
-0.0515296
-0.0513935
-0.0511246
-0.0507292
-0.050216
-0.049596
-0.0488815
-0.0480856
-0.047222
-0.0463039
-0.0453441
-0.0443541
-0.0433448
-0.0423254
-0.0413042
-0.0402879
-0.0392825
-0.0382925
-0.0373217
-0.036373
-0.0354485
-0.0345497
-0.0336778
-0.0328333
-0.0320164
-0.0490063
-0.0488893
-0.0486578
-0.0483165
-0.0478725
-0.0473344
-0.0467119
-0.0460159
-0.0452573
-0.0444472
-0.043596
-0.042714
-0.0418102
-0.0408931
-0.0399697
-0.0390467
-0.0381292
-0.0372219
-0.0363283
-0.0354516
-0.0345939
-0.0337571
-0.0329425
-0.0321508
-0.0313826
-0.0467185
-0.0466171
-0.0464163
-0.0461198
-0.0457332
-0.0452633
-0.0447181
-0.0441063
-0.0434369
-0.0427191
-0.0419617
-0.0411734
-0.0403621
-0.039535
-0.0386988
-0.0378591
-0.0370211
-0.0361888
-0.035366
-0.0345556
-0.0337599
-0.0329808
-0.0322198
-0.0314779
-0.0307559
-0.0446346
-0.0445462
-0.0443709
-0.0441118
-0.0437731
-0.0433606
-0.0428806
-0.0423402
-0.0417469
-0.0411084
-0.0404322
-0.0397255
-0.0389952
-0.0382478
-0.0374891
-0.0367242
-0.0359577
-0.0351937
-0.0344355
-0.033686
-0.0329476
-0.0322222
-0.0315114
-0.0308163
-0.0301379
-0.0427285
-0.0426511
-0.0424972
-0.0422693
-0.0419711
-0.041607
-0.0411823
-0.0407029
-0.040175
-0.0396049
-0.0389991
-0.0383637
-0.0377048
-0.0370279
-0.0363381
-0.0356402
-0.0349383
-0.0342362
-0.033537
-0.0328434
-0.0321579
-0.0314824
-0.0308184
-0.0301673
-0.0295299
-0.0409785
-0.0409102
-0.0407744
-0.040573
-0.0403091
-0.0399862
-0.0396088
-0.0391817
-0.0387101
-0.0381994
-0.0376549
-0.037082
-0.0364859
-0.0358714
-0.0352432
-0.0346054
-0.0339618
-0.0333158
-0.0326704
-0.0320282
-0.0313915
-0.0307622
-0.0301419
-0.0295318
-0.0289331
-0.634445
-0.483948
-0.35329
-0.268806
-0.214525
-0.177751
-0.151468
-0.131838
-0.116655
-0.104578
-0.0947486
-0.0865976
-0.0797311
-0.073869
-0.0688067
-0.0643916
-0.0605074
-0.057064
-0.0539905
-0.0512306
-0.0487386
-0.0464773
-0.0444163
-0.0425301
-0.0407973
-0.484763
-0.402069
-0.315676
-0.251022
-0.205272
-0.172457
-0.148195
-0.129687
-0.11517
-0.103511
-0.093958
-0.0859958
-0.0792626
-0.0734973
-0.068507
-0.0641464
-0.0603043
-0.0568939
-0.0538467
-0.0511078
-0.048633
-0.0463859
-0.0443366
-0.0424601
-0.0407356
-0.351571
-0.315342
-0.267618
-0.224552
-0.190009
-0.16313
-0.142173
-0.125609
-0.112296
-0.101416
-0.0923867
-0.084789
-0.0783166
-0.0727425
-0.0678954
-0.0636442
-0.0598869
-0.0565434
-0.0535495
-0.0508537
-0.048414
-0.0461959
-0.0441707
-0.0423145
-0.040607
-0.268133
-0.250809
-0.224538
-0.197126
-0.172471
-0.151618
-0.134362
-0.120132
-0.108336
-0.0984756
-0.0901507
-0.0830528
-0.0769439
-0.0716397
-0.0669969
-0.062903
-0.0592687
-0.0560224
-0.0531066
-0.0504742
-0.0480864
-0.0459111
-0.0439217
-0.0420955
-0.0404134
-0.214622
-0.205361
-0.190104
-0.172531
-0.155236
-0.139494
-0.125703
-0.113824
-0.103644
-0.0949141
-0.0873962
-0.0808858
-0.0752124
-0.0702368
-0.065846
-0.061948
-0.0584682
-0.0553453
-0.052529
-0.0499777
-0.0476566
-0.0455368
-0.0435937
-0.0418065
-0.0401576
-0.178174
-0.172748
-0.163335
-0.151749
-0.139556
-0.127772
-0.116916
-0.107175
-0.0985493
-0.0909555
-0.0842773
-0.0783952
-0.0731983
-0.0685888
-0.0644829
-0.0608094
-0.0575083
-0.0545293
-0.0518301
-0.0493748
-0.0471331
-0.0450796
-0.0431921
-0.041452
-0.0398432
-0.151995
-0.148578
-0.142447
-0.134549
-0.125815
-0.116966
-0.108462
-0.100547
-0.0933216
-0.0867969
-0.0809373
-0.0756858
-0.0709786
-0.0667529
-0.0629506
-0.0595196
-0.056414
-0.053594
-0.051025
-0.0486774
-0.0465255
-0.0445472
-0.0427232
-0.0410371
-0.0394743
-0.132374
-0.130097
-0.125916
-0.120352
-0.113972
-0.107263
-0.100586
-0.0941742
-0.088158
-0.0825953
-0.0774981
-0.0728511
-0.068625
-0.0647841
-0.0612916
-0.0581117
-0.055211
-0.0525595
-0.05013
-0.0478986
-0.0458442
-0.0439481
-0.042194
-0.0405675
-0.0390559
-0.117161
-0.115575
-0.112611
-0.108574
-0.103815
-0.0986638
-0.0933895
-0.0881881
-0.0831883
-0.0784654
-0.0740556
-0.0699692
-0.0662
-0.0627323
-0.0595455
-0.0566172
-0.0539247
-0.0514462
-0.0491614
-0.0470517
-0.0451001
-0.0432913
-0.0416118
-0.0400493
-0.0385929
-0.105042
-0.103894
-0.101724
-0.0987167
-0.0950962
-0.0910868
-0.0868853
-0.0826479
-0.0784888
-0.0744842
-0.0706804
-0.0671014
-0.0637554
-0.0606403
-0.0577476
-0.0550651
-0.0525786
-0.0502735
-0.0481351
-0.0461496
-0.0443039
-0.0425857
-0.0409841
-0.0394888
-0.0380906
-0.0951684
-0.0943134
-0.0926806
-0.0903876
-0.087582
-0.0844181
-0.0810392
-0.0775669
-0.0740968
-0.0706989
-0.067421
-0.0642932
-0.0613318
-0.0585435
-0.0559281
-0.0534807
-0.0511941
-0.0490592
-0.0470661
-0.045205
-0.0434662
-0.0418402
-0.0403183
-0.0388922
-0.0375544
-0.0869756
-0.0863222
-0.0850648
-0.083281
-0.08107
-0.07854
-0.0757959
-0.0729311
-0.0700235
-0.0671341
-0.0643079
-0.0615764
-0.0589598
-0.0564698
-0.0541116
-0.0518858
-0.0497899
-0.0478193
-0.045968
-0.0442295
-0.0425969
-0.0410632
-0.0396216
-0.0382658
-0.0369895
-0.0800712
-0.079561
-0.0785734
-0.0771607
-0.0753917
-0.0733434
-0.0710929
-0.0687122
-0.0662636
-0.0637988
-0.0613581
-0.0589717
-0.056661
-0.0544403
-0.0523179
-0.0502981
-0.0483818
-0.0465678
-0.044853
-0.0432336
-0.0417051
-0.0402625
-0.038901
-0.0376154
-0.0364011
-0.0741754
-0.0737696
-0.0729804
-0.0718441
-0.0704093
-0.0687316
-0.0668686
-0.0648756
-0.0628023
-0.0606916
-0.0585786
-0.0564911
-0.05445
-0.0524702
-0.0505621
-0.0487319
-0.046983
-0.0453165
-0.0437316
-0.0422267
-0.0407991
-0.0394455
-0.0381626
-0.0369466
-0.035794
-0.0690835
-0.0687556
-0.0681154
-0.0671886
-0.0660104
-0.0646217
-0.0630657
-0.061385
-0.0596196
-0.0578045
-0.0559699
-0.0541404
-0.0523355
-0.0505701
-0.0488552
-0.0471982
-0.0456039
-0.0440752
-0.0426129
-0.0412169
-0.0398861
-0.0386186
-0.0374123
-0.0362646
-0.0351728
-0.0646423
-0.0643737
-0.0638475
-0.0630823
-0.062104
-0.0609431
-0.0596325
-0.0582054
-0.0566935
-0.0551257
-0.0535275
-0.0519203
-0.0503219
-0.0487465
-0.0472049
-0.0457051
-0.0442528
-0.0428518
-0.0415043
-0.0402112
-0.0389726
-0.0377877
-0.0366553
-0.0355739
-0.0345415
-0.0607352
-0.0605125
-0.0600748
-0.0594361
-0.0586157
-0.0576365
-0.0565239
-0.0553039
-0.0540019
-0.0526416
-0.0512443
-0.0498287
-0.0484106
-0.047003
-0.0456162
-0.0442585
-0.0429359
-0.0416527
-0.0404119
-0.0392154
-0.0380639
-0.0369576
-0.0358962
-0.0348787
-0.0339041
-0.0572717
-0.057085
-0.0567172
-0.0561788
-0.0554844
-0.0546517
-0.0537003
-0.0526507
-0.0515234
-0.0503377
-0.0491117
-0.0478613
-0.0466003
-0.0453407
-0.044092
-0.0428623
-0.0416575
-0.0404825
-0.0393405
-0.0382341
-0.0371646
-0.0361328
-0.035139
-0.0341829
-0.0332639
-0.0541805
-0.0540225
-0.0537105
-0.0532527
-0.0526601
-0.0519465
-0.0511273
-0.0502189
-0.0492378
-0.0481998
-0.0471201
-0.0460122
-0.0448884
-0.0437592
-0.0426335
-0.0415187
-0.0404208
-0.0393447
-0.0382939
-0.0372711
-0.0362783
-0.0353167
-0.034387
-0.0334894
-0.0326239
-0.0514049
-0.05127
-0.0510031
-0.0506106
-0.0501011
-0.0494854
-0.0487756
-0.0479849
-0.0471267
-0.0462141
-0.0452597
-0.0442752
-0.0432712
-0.0422569
-0.0412405
-0.0402288
-0.0392277
-0.0382417
-0.0372747
-0.0363294
-0.0354082
-0.0345124
-0.0336433
-0.0328013
-0.0319867
-0.0488991
-0.0487829
-0.0485529
-0.048214
-0.0477729
-0.0472381
-0.0466195
-0.0459276
-0.0451733
-0.0443676
-0.043521
-0.0426435
-0.0417441
-0.0408312
-0.039912
-0.0389928
-0.038079
-0.0371752
-0.036285
-0.0354113
-0.0345565
-0.0337223
-0.0329101
-0.0321207
-0.0313546
-0.0466255
-0.0465248
-0.0463253
-0.0460306
-0.0456463
-0.0451791
-0.044637
-0.0440285
-0.0433626
-0.0426484
-0.0418948
-0.0411102
-0.0403025
-0.0394791
-0.0386463
-0.03781
-0.0369751
-0.0361459
-0.035326
-0.0345182
-0.033725
-0.0329483
-0.0321895
-0.0314497
-0.0307295
-0.0445535
-0.0444657
-0.0442914
-0.0440336
-0.0436969
-0.0432865
-0.042809
-0.0422713
-0.0416809
-0.0410454
-0.0403722
-0.0396686
-0.0389415
-0.0381971
-0.0374414
-0.0366793
-0.0359156
-0.0351542
-0.0343985
-0.0336514
-0.0329152
-0.0321919
-0.031483
-0.0307898
-0.0301131
-0.0426574
-0.0425803
-0.0424272
-0.0422006
-0.0419038
-0.0415415
-0.0411189
-0.0406417
-0.0401161
-0.0395486
-0.0389453
-0.0383125
-0.0376562
-0.0369819
-0.0362946
-0.0355992
-0.0348997
-0.0341998
-0.0335028
-0.0328113
-0.0321278
-0.0314541
-0.0307919
-0.0301424
-0.0295066
-0.0409157
-0.0408478
-0.0407126
-0.0405122
-0.0402495
-0.0399281
-0.0395523
-0.0391271
-0.0386574
-0.0381488
-0.0376064
-0.0370357
-0.0364418
-0.0358296
-0.0352035
-0.0345678
-0.0339263
-0.0332823
-0.0326388
-0.0319985
-0.0313635
-0.0307358
-0.0301171
-0.0295085
-0.0289112
-0.39538
-0.349999
-0.289664
-0.237525
-0.197691
-0.167865
-0.145231
-0.127673
-0.113744
-0.102467
-0.0931709
-0.0853884
-0.0787845
-0.0731143
-0.0681956
-0.0638899
-0.0600905
-0.0567138
-0.0536936
-0.0509767
-0.0485197
-0.0462874
-0.0442505
-0.0423844
-0.0406687
-0.350145
-0.3158
-0.268597
-0.225334
-0.190511
-0.163436
-0.14236
-0.125726
-0.112371
-0.101465
-0.0924202
-0.0848121
-0.0783329
-0.0727541
-0.0679039
-0.0636504
-0.0598916
-0.0565469
-0.0535521
-0.0508557
-0.0484156
-0.0461971
-0.0441716
-0.0423152
-0.0406075
-0.289333
-0.268492
-0.237289
-0.205729
-0.178189
-0.155464
-0.137011
-0.122007
-0.1097
-0.0994913
-0.0909246
-0.0836544
-0.0774197
-0.072022
-0.0673083
-0.0631598
-0.0594827
-0.0562027
-0.0532598
-0.0506054
-0.0481996
-0.0460095
-0.0440076
-0.042171
-0.0404801
-0.237399
-0.22529
-0.205742
-0.184054
-0.163509
-0.145418
-0.129988
-0.116973
-0.106002
-0.096712
-0.0887914
-0.0819861
-0.0760931
-0.0709513
-0.0664328
-0.0624352
-0.0588768
-0.0556911
-0.0528241
-0.0502314
-0.0478762
-0.0457281
-0.0437613
-0.0419542
-0.0402883
-0.197882
-0.190635
-0.178283
-0.163562
-0.148607
-0.134623
-0.122102
-0.111128
-0.101596
-0.0933327
-0.0861564
-0.0798996
-0.0744173
-0.0695878
-0.0653102
-0.0615011
-0.0580919
-0.0550258
-0.0522555
-0.0497419
-0.047452
-0.0453582
-0.0434369
-0.0416681
-0.0400349
-0.168246
-0.163696
-0.155644
-0.145533
-0.134678
-0.123996
-0.114002
-0.104916
-0.0967835
-0.0895611
-0.083164
-0.0774964
-0.0724648
-0.0679841
-0.0639795
-0.0603865
-0.0571502
-0.0542237
-0.0515673
-0.0491474
-0.0469352
-0.0449062
-0.0430396
-0.0413171
-0.0397233
-0.14569
-0.142695
-0.137253
-0.130153
-0.122202
-0.114047
-0.106122
-0.0986738
-0.0918177
-0.0855826
-0.0799496
-0.074876
-0.0703092
-0.066195
-0.0624819
-0.0591229
-0.0560758
-0.0533036
-0.0507742
-0.0484595
-0.0463351
-0.0443799
-0.0425756
-0.0409062
-0.0393578
-0.128146
-0.12609
-0.122281
-0.117172
-0.111262
-0.104996
-0.0987098
-0.092629
-0.0868863
-0.0815465
-0.0766295
-0.072128
-0.0680193
-0.0642737
-0.0608587
-0.0577422
-0.0548938
-0.0522855
-0.0498921
-0.047691
-0.045662
-0.0437875
-0.0420518
-0.040441
-0.038943
-0.114199
-0.112736
-0.109985
-0.106218
-0.101752
-0.0968894
-0.0918809
-0.0869145
-0.0821167
-0.0775641
-0.0732963
-0.0693276
-0.0656557
-0.0622684
-0.0591483
-0.0562753
-0.053629
-0.0511892
-0.048937
-0.0468548
-0.0449265
-0.0431377
-0.0414753
-0.0399275
-0.0384839
-0.102891
-0.101816
-0.0997748
-0.0969347
-0.0935017
-0.0896837
-0.0856655
-0.0815961
-0.0775863
-0.0737116
-0.0700191
-0.0665347
-0.0632686
-0.0602209
-0.057385
-0.0547503
-0.0523043
-0.0500335
-0.0479244
-0.0459638
-0.0441393
-0.0424395
-0.0408536
-0.039372
-0.0379858
-0.0935598
-0.09275
-0.0911981
-0.0890126
-0.0863306
-0.0832965
-0.0800459
-0.0766948
-0.0733356
-0.0700368
-0.066846
-0.063794
-0.060898
-0.0581658
-0.0555984
-0.0531922
-0.0509408
-0.0488361
-0.046869
-0.0450303
-0.0433107
-0.0417015
-0.0401941
-0.0387807
-0.0374539
-0.0857426
-0.0851182
-0.0839136
-0.082201
-0.0800737
-0.0776337
-0.0749807
-0.0722043
-0.0693796
-0.066566
-0.0638081
-0.0611372
-0.0585739
-0.0561304
-0.0538127
-0.0516221
-0.0495567
-0.0476126
-0.0457843
-0.0440657
-0.0424505
-0.040932
-0.0395037
-0.0381595
-0.0368935
-0.079106
-0.0786151
-0.077663
-0.0762989
-0.0745879
-0.0726032
-0.0704185
-0.0681029
-0.0657169
-0.0633104
-0.0609233
-0.0585854
-0.0563181
-0.0541359
-0.0520476
-0.0500577
-0.0481678
-0.0463768
-0.0446822
-0.0430806
-0.0415676
-0.0401388
-0.0387893
-0.0375145
-0.0363096
-0.0734061
-0.0730136
-0.0722489
-0.0711466
-0.0697528
-0.068121
-0.0663062
-0.0643618
-0.062336
-0.0602705
-0.0581998
-0.0561512
-0.0541453
-0.0521975
-0.0503179
-0.0485131
-0.0467868
-0.0451403
-0.0435733
-0.0420841
-0.0406703
-0.0393291
-0.0380572
-0.036851
-0.035707
-0.0684607
-0.0681422
-0.0675193
-0.0666169
-0.0654684
-0.0641131
-0.062593
-0.060949
-0.05922
-0.0574402
-0.055639
-0.0538407
-0.0520647
-0.0503257
-0.0486347
-0.0469993
-0.0454244
-0.0439131
-0.0424663
-0.0410842
-0.0397658
-0.0385094
-0.037313
-0.0361741
-0.0350902
-0.0641312
-0.0638693
-0.0633557
-0.0626082
-0.0616518
-0.0605159
-0.0592322
-0.0578332
-0.0563495
-0.0548093
-0.0532377
-0.0516558
-0.050081
-0.0485274
-0.0470058
-0.0455243
-0.0440887
-0.0427028
-0.0413688
-0.040088
-0.0388603
-0.0376853
-0.0365618
-0.0354884
-0.0344633
-0.0603107
-0.0600929
-0.0596645
-0.059039
-0.0582349
-0.0572745
-0.0561825
-0.0549842
-0.0537042
-0.0523658
-0.0509898
-0.0495947
-0.0481959
-0.0468064
-0.0454365
-0.0440943
-0.0427859
-0.0415157
-0.0402868
-0.039101
-0.0379593
-0.0368618
-0.0358084
-0.0347982
-0.0338301
-0.0569153
-0.0567323
-0.0563715
-0.055843
-0.055161
-0.0543427
-0.0534072
-0.0523745
-0.0512645
-0.0500963
-0.0488875
-0.0476537
-0.0464087
-0.0451641
-0.0439296
-0.042713
-0.0415204
-0.0403566
-0.039225
-0.038128
-0.0370671
-0.0360432
-0.0350566
-0.034107
-0.033194
-0.0538785
-0.0537232
-0.0534166
-0.0529663
-0.0523833
-0.0516809
-0.0508741
-0.049979
-0.0490116
-0.0479877
-0.0469219
-0.0458276
-0.044717
-0.0436003
-0.0424865
-0.0413829
-0.0402955
-0.0392291
-0.0381873
-0.0371728
-0.0361877
-0.0352331
-0.0343098
-0.0334181
-0.0325579
-0.0511468
-0.051014
-0.0507512
-0.0503646
-0.0498625
-0.0492555
-0.0485555
-0.0477754
-0.0469282
-0.0460269
-0.0450839
-0.0441106
-0.0431175
-0.0421137
-0.0411074
-0.0401053
-0.0391131
-0.0381356
-0.0371763
-0.0362384
-0.0353239
-0.0344343
-0.0335709
-0.0327342
-0.0319245
-0.0486767
-0.0485622
-0.0483354
-0.0480011
-0.0475658
-0.047038
-0.0464272
-0.0457437
-0.0449984
-0.0442019
-0.0433646
-0.0424963
-0.041606
-0.040702
-0.0397913
-0.0388802
-0.0379742
-0.0370776
-0.0361942
-0.0353269
-0.0344781
-0.0336494
-0.0328424
-0.0320577
-0.031296
-0.0464326
-0.0463333
-0.0461362
-0.0458452
-0.0454655
-0.0450039
-0.044468
-0.0438664
-0.0432078
-0.0425011
-0.0417551
-0.0409782
-0.0401782
-0.0393622
-0.0385367
-0.0377073
-0.0368791
-0.0360562
-0.0352422
-0.0344401
-0.0336521
-0.0328803
-0.0321261
-0.0313905
-0.0306743
-0.0443851
-0.0442983
-0.0441261
-0.0438713
-0.0435382
-0.0431323
-0.0426598
-0.0421277
-0.0415433
-0.040914
-0.0402472
-0.03955
-0.0388293
-0.0380913
-0.0373416
-0.0365855
-0.0358276
-0.0350716
-0.0343211
-0.0335789
-0.0328474
-0.0321285
-0.0314237
-0.0307343
-0.0300611
-0.0425095
-0.0424333
-0.0422819
-0.0420575
-0.0417638
-0.0414052
-0.0409867
-0.040514
-0.0399934
-0.039431
-0.038833
-0.0382056
-0.0375547
-0.0368857
-0.0362037
-0.0355134
-0.0348189
-0.0341238
-0.0334313
-0.0327442
-0.0320647
-0.0313949
-0.0307364
-0.0300903
-0.0294577
-0.0407852
-0.0407179
-0.0405841
-0.0403856
-0.0401253
-0.0398069
-0.0394346
-0.0390131
-0.0385476
-0.0380432
-0.0375053
-0.0369391
-0.0363498
-0.0357421
-0.0351205
-0.0344893
-0.033852
-0.0332121
-0.0325727
-0.0319361
-0.0313048
-0.0306806
-0.0300651
-0.0294596
-0.0288652
-0.285453
-0.266703
-0.236803
-0.20569
-0.17823
-0.155491
-0.137015
-0.121995
-0.10968
-0.0994692
-0.0909021
-0.0836329
-0.0773998
-0.0720039
-0.0672921
-0.0631452
-0.0594698
-0.0561911
-0.0532494
-0.0505961
-0.0481912
-0.046002
-0.0440008
-0.0421649
-0.0404746
-0.266897
-0.250849
-0.225178
-0.197819
-0.173015
-0.151999
-0.13462
-0.120304
-0.108453
-0.0985556
-0.0902064
-0.0830922
-0.0769722
-0.0716603
-0.0670121
-0.0629142
-0.0592771
-0.0560288
-0.0531115
-0.0504779
-0.0480892
-0.0459133
-0.0439233
-0.0420967
-0.0404144
-0.236943
-0.225215
-0.205886
-0.184258
-0.163691
-0.145557
-0.130088
-0.117043
-0.106051
-0.0967465
-0.0888158
-0.0820036
-0.0761058
-0.0709607
-0.0664397
-0.0624404
-0.0588807
-0.0556941
-0.0528263
-0.0502331
-0.0478776
-0.0457291
-0.0437621
-0.0419548
-0.0402888
-0.205872
-0.197909
-0.184303
-0.168239
-0.152121
-0.137232
-0.124042
-0.112584
-0.102703
-0.0941873
-0.0868257
-0.0804311
-0.0748451
-0.0699363
-0.0655974
-0.0617403
-0.0582929
-0.0551962
-0.0524011
-0.0498672
-0.0475606
-0.0454528
-0.0435199
-0.0417413
-0.0400997
-0.178517
-0.173191
-0.1638
-0.152175
-0.139914
-0.128059
-0.11714
-0.107348
-0.0986828
-0.0910589
-0.0843581
-0.0784589
-0.073249
-0.0686297
-0.0645161
-0.0608367
-0.0575309
-0.0545483
-0.051846
-0.0493883
-0.0471447
-0.0450895
-0.0432007
-0.0414595
-0.0398497
-0.155863
-0.152254
-0.145729
-0.137339
-0.128108
-0.118813
-0.109934
-0.101719
-0.0942565
-0.0875471
-0.0815438
-0.0761801
-0.0713851
-0.06709
-0.0632325
-0.0597572
-0.0566158
-0.0537666
-0.0511737
-0.0488062
-0.0466378
-0.0446455
-0.0428098
-0.0411137
-0.0395424
-0.137429
-0.134925
-0.130307
-0.124192
-0.117231
-0.109976
-0.102818
-0.0960008
-0.089652
-0.0838204
-0.0785072
-0.073687
-0.0693218
-0.065369
-0.0617858
-0.0585319
-0.0555708
-0.0528693
-0.0503984
-0.0481324
-0.0460489
-0.0441282
-0.0423532
-0.0407088
-0.0391818
-0.122417
-0.120632
-0.117291
-0.112764
-0.10747
-0.101792
-0.0960339
-0.0904071
-0.0850445
-0.0800178
-0.0753567
-0.0710634
-0.0671242
-0.0635168
-0.0602149
-0.0571914
-0.0544198
-0.0518754
-0.0495354
-0.0473791
-0.045388
-0.0435457
-0.0418374
-0.0402502
-0.0387725
-0.110089
-0.108783
-0.10631
-0.1029
-0.0988262
-0.0943539
-0.0897106
-0.0850707
-0.0805564
-0.076245
-0.0721801
-0.0683807
-0.0648496
-0.0615794
-0.0585567
-0.055765
-0.0531868
-0.0508041
-0.0486002
-0.0465589
-0.0446655
-0.0429065
-0.0412696
-0.0397439
-0.0383194
-0.0998544
-0.0988757
-0.097006
-0.094392
-0.091215
-0.0876608
-0.0838977
-0.0800643
-0.0762659
-0.0725764
-0.0690439
-0.0656962
-0.0625463
-0.0595969
-0.0568443
-0.0542801
-0.0518938
-0.0496738
-0.0476079
-0.0456843
-0.0438917
-0.0422192
-0.040657
-0.0391959
-0.0378275
-0.0912596
-0.0905103
-0.0890685
-0.0870309
-0.0845202
-0.0816676
-0.0785975
-0.0754182
-0.0722172
-0.0690607
-0.0659958
-0.0630536
-0.0602529
-0.0576029
-0.0551061
-0.0527606
-0.0505613
-0.0485013
-0.0465728
-0.0447674
-0.0430767
-0.0414924
-0.0400068
-0.0386123
-0.0373022
-0.0839617
-0.083377
-0.0822453
-0.0806321
-0.0786222
-0.0763094
-0.0737859
-0.0711357
-0.0684301
-0.0657261
-0.0630672
-0.0604845
-0.0579991
-0.055624
-0.053366
-0.0512273
-0.0492071
-0.0473022
-0.0455081
-0.0438193
-0.04223
-0.0407342
-0.0393258
-0.0379991
-0.0367485
-0.077701
-0.0772369
-0.0763345
-0.0750389
-0.0734102
-0.0715161
-0.0694257
-0.0672038
-0.064908
-0.0625863
-0.0602772
-0.0580102
-0.0558066
-0.0536811
-0.051643
-0.0496974
-0.0478465
-0.0460898
-0.0444254
-0.0428502
-0.0413606
-0.0399523
-0.0386209
-0.037362
-0.0361713
-0.0722793
-0.0719054
-0.0711754
-0.0701214
-0.0687865
-0.0672204
-0.0654751
-0.063601
-0.0616441
-0.0596446
-0.0576356
-0.055644
-0.0536902
-0.0517893
-0.0499519
-0.0481849
-0.0464922
-0.0448755
-0.043335
-0.0418692
-0.0404763
-0.0391536
-0.037898
-0.0367064
-0.0355754
-0.0675439
-0.0672386
-0.0666406
-0.0657729
-0.0646672
-0.0633604
-0.0618921
-0.0603016
-0.0586257
-0.0568974
-0.0551453
-0.0533931
-0.0516596
-0.0499596
-0.048304
-0.0467006
-0.0451546
-0.0436691
-0.0422456
-0.0408843
-0.0395844
-0.0383446
-0.0371629
-0.0360373
-0.0349653
-0.0633758
-0.0631235
-0.0626279
-0.0619059
-0.0609812
-0.0598815
-0.0586372
-0.057279
-0.0558366
-0.0543371
-0.0528047
-0.05126
-0.0497201
-0.0481988
-0.046707
-0.0452527
-0.0438418
-0.0424783
-0.0411647
-0.0399021
-0.0386909
-0.0375308
-0.0364207
-0.0353592
-0.0343449
-0.0596812
-0.0594704
-0.0590554
-0.0584489
-0.0576686
-0.0567357
-0.0556738
-0.0545072
-0.0532596
-0.0519534
-0.0506089
-0.049244
-0.0478739
-0.0465113
-0.0451664
-0.0438473
-0.0425601
-0.0413094
-0.0400981
-0.0389284
-0.0378013
-0.0367172
-0.0356757
-0.0346764
-0.0337181
-0.0563853
-0.0562076
-0.0558569
-0.0553428
-0.0546789
-0.0538817
-0.0529695
-0.0519616
-0.0508772
-0.0497348
-0.0485514
-0.0473423
-0.0461209
-0.0448987
-0.0436853
-0.0424883
-0.041314
-0.040167
-0.0390508
-0.037968
-0.03692
-0.0359079
-0.034932
-0.0339923
-0.0330882
-0.0534283
-0.053277
-0.0529781
-0.0525389
-0.0519698
-0.0512838
-0.0504953
-0.0496198
-0.0486728
-0.0476696
-0.0466244
-0.0455504
-0.0444593
-0.0433614
-0.0422654
-0.0411785
-0.0401067
-0.0390548
-0.0380265
-0.0370244
-0.0360507
-0.0351066
-0.034193
-0.0333101
-0.032458
-0.0507611
-0.0506314
-0.0503747
-0.0499966
-0.0495055
-0.0489114
-0.0482258
-0.0474613
-0.0466305
-0.045746
-0.0448198
-0.0438632
-0.0428863
-0.0418983
-0.0409069
-0.0399191
-0.0389403
-0.0379754
-0.0370279
-0.0361008
-0.0351964
-0.0343163
-0.0334615
-0.0326327
-0.0318303
-0.0483439
-0.0482319
-0.0480098
-0.0476822
-0.0472556
-0.046738
-0.0461387
-0.0454678
-0.0447357
-0.0439528
-0.0431294
-0.0422749
-0.0413982
-0.0405073
-0.0396094
-0.0387105
-0.037816
-0.0369303
-0.0360572
-0.0351995
-0.0343595
-0.0335392
-0.0327399
-0.0319623
-0.0312073
-0.0461435
-0.0460461
-0.0458528
-0.0455671
-0.0451943
-0.0447409
-0.0442143
-0.0436228
-0.042975
-0.0422795
-0.041545
-0.0407796
-0.0399909
-0.0391861
-0.0383714
-0.0375524
-0.0367341
-0.0359207
-0.0351157
-0.0343219
-0.0335419
-0.0327775
-0.0320301
-0.031301
-0.0305908
-0.0441323
-0.0440471
-0.0438778
-0.0436274
-0.0432998
-0.0429006
-0.0424356
-0.0419118
-0.0413363
-0.0407162
-0.0400589
-0.0393713
-0.0386602
-0.0379315
-0.0371911
-0.036444
-0.0356946
-0.0349469
-0.0342042
-0.0334694
-0.0327448
-0.0320325
-0.0313338
-0.0306502
-0.0299825
-0.0422873
-0.0422124
-0.0420633
-0.0418425
-0.0415533
-0.0412
-0.0407877
-0.0403219
-0.0398085
-0.0392538
-0.0386637
-0.0380444
-0.0374016
-0.0367406
-0.0360665
-0.0353839
-0.0346968
-0.0340088
-0.0333232
-0.0326426
-0.0319693
-0.0313053
-0.0306523
-0.0300114
-0.0293837
-0.0405889
-0.0405226
-0.0403907
-0.0401951
-0.0399385
-0.0396245
-0.0392573
-0.0388414
-0.0383819
-0.0378839
-0.0373527
-0.0367933
-0.0362109
-0.03561
-0.0349952
-0.0343706
-0.0337397
-0.0331061
-0.0324726
-0.0318418
-0.031216
-0.0305969
-0.0299864
-0.0293855
-0.0287955
-0.222883
-0.213491
-0.197118
-0.178044
-0.159346
-0.142492
-0.127887
-0.115428
-0.10484
-0.0958204
-0.0880944
-0.0814322
-0.0756465
-0.0705864
-0.0661311
-0.0621832
-0.0586642
-0.0555102
-0.0526689
-0.0500974
-0.0477597
-0.0456262
-0.0436717
-0.041875
-0.040218
-0.213681
-0.205168
-0.190375
-0.172961
-0.155647
-0.139826
-0.125951
-0.114003
-0.103773
-0.0950064
-0.0874628
-0.0809341
-0.0752478
-0.0702631
-0.0658656
-0.0619628
-0.0584794
-0.0553538
-0.0525355
-0.0499827
-0.0476605
-0.0455397
-0.0435959
-0.0418082
-0.0401589
-0.197364
-0.190464
-0.178351
-0.163736
-0.148797
-0.134788
-0.122232
-0.111226
-0.101668
-0.0933858
-0.0861955
-0.0799284
-0.0744386
-0.0696037
-0.0653222
-0.0615102
-0.0580988
-0.055031
-0.0522596
-0.049745
-0.0474544
-0.04536
-0.0434383
-0.0416692
-0.0400357
-0.178323
-0.173108
-0.163799
-0.152218
-0.139972
-0.128115
-0.117187
-0.107385
-0.0987116
-0.0910807
-0.0843745
-0.0784712
-0.0732583
-0.0686367
-0.0645215
-0.0608407
-0.0575341
-0.0545507
-0.0518479
-0.0493897
-0.0471458
-0.0450904
-0.0432014
-0.04146
-0.0398501
-0.159667
-0.155849
-0.148915
-0.140026
-0.1303
-0.120565
-0.111323
-0.102817
-0.095129
-0.0882446
-0.082106
-0.0766373
-0.0717602
-0.0674007
-0.063492
-0.0599757
-0.0568012
-0.0539251
-0.05131
-0.0489243
-0.0467406
-0.0447356
-0.0428892
-0.0411839
-0.0396048
-0.142849
-0.140074
-0.134955
-0.128215
-0.120611
-0.11276
-0.105087
-0.0978421
-0.091147
-0.0850385
-0.0795052
-0.07451
-0.0700054
-0.0659408
-0.0622676
-0.0589408
-0.05592
-0.0531696
-0.0506581
-0.0483583
-0.0462465
-0.0443019
-0.0425066
-0.0408449
-0.0393031
-0.128262
-0.126231
-0.122434
-0.117325
-0.111406
-0.105124
-0.0988207
-0.0927229
-0.0869648
-0.0816117
-0.0766835
-0.0721727
-0.0680565
-0.0643048
-0.0608848
-0.0577642
-0.0549124
-0.0523014
-0.0499057
-0.0477027
-0.0456721
-0.0437963
-0.0420595
-0.0404478
-0.0389489
-0.115806
-0.114299
-0.11145
-0.107549
-0.102929
-0.0979094
-0.0927533
-0.0876541
-0.0827408
-0.07809
-0.0737398
-0.0697025
-0.0659737
-0.0625393
-0.0593801
-0.0564746
-0.0538012
-0.0513387
-0.0490674
-0.0469691
-0.0450271
-0.0432267
-0.0415543
-0.0399979
-0.0385468
-0.105207
-0.104071
-0.101903
-0.0988912
-0.0952602
-0.0912365
-0.0870189
-0.0827652
-0.0785905
-0.0745718
-0.0707555
-0.0671657
-0.0638104
-0.0606875
-0.0577882
-0.0551
-0.0526088
-0.0502997
-0.048158
-0.0461696
-0.0443215
-0.0426012
-0.0409978
-0.0395009
-0.0381015
-0.0961689
-0.0952972
-0.0936226
-0.0912682
-0.0883882
-0.0851436
-0.0816834
-0.0781333
-0.0745913
-0.0711288
-0.067794
-0.0646166
-0.0616124
-0.0587874
-0.0561404
-0.0536662
-0.0513566
-0.049202
-0.047192
-0.0453165
-0.0435651
-0.0419283
-0.040397
-0.0389628
-0.0376179
-0.0884208
-0.0877411
-0.0864277
-0.0845638
-0.0822561
-0.0796203
-0.0767679
-0.0737975
-0.0707905
-0.0678098
-0.0649016
-0.0620973
-0.0594167
-0.0568709