ITEM: TIMESTEP
0
ITEM: NUMBER OF ATOMS
432
ITEM: BOX BOUNDS pp pp pp
-9.5000000000000000e+00 9.5000000000000000e+00
-9.5000000000000000e+00 9.5000000000000000e+00
-9.5000000000000000e+00 9.5000000000000000e+00
ITEM: ATOMS id type mol x y z
1 6 1 -1.15879 -0.210927 -0.000504825
4 2 1 -1.30494 -0.492243 -1.00761
20 8 4 -7.45199 -1.61784 -2.27016
21 3 4 -8.36108 -1.26606 -2.32888
22 3 4 -7.62107 -2.58539 -2.22497
24 3 5 -6.40311 -0.28687 -0.237494
37 3 9 -6.32381 -2.23354 -0.630486
158 8 50 -1.69276 -4.85437 -7.86689
159 3 50 -2.16826 -4.2137 -7.32208
160 3 50 -1.9057 -4.46094 -8.74007
161 8 51 -7.45138 -4.28295 -1.67856
162 3 51 -7.32407 -4.4986 -0.727048
163 3 51 -7.685 -5.14607 -2.03171
164 8 52 -7.09489 -3.40418 -5.25049
165 3 52 -6.31472 -2.97514 -5.62852
166 3 52 -7.80119 -2.97627 -5.77746
170 8 54 -4.82841 -2.77196 -2.31027
171 3 54 -5.48988 -2.16482 -2.68192
172 3 54 -5.2614 -3.63267 -2.42004
173 8 55 -1.89034 -2.85876 -4.9213
174 3 55 -1.69437 -1.9919 -4.48457
175 3 55 -2.26794 -2.57055 -5.73348
179 8 57 -3.02332 -2.4624 -7.26358
180 3 57 -3.96509 -2.23814 -7.45763
181 3 57 -2.52851 -1.78147 -7.77068
185 8 59 -4.06137 -5.66974 -2.60982
186 3 59 -4.57064 -6.43728 -2.27448
187 3 59 -3.93439 -5.91568 -3.54309
281 8 91 -2.81809 -5.46076 -5.16302
282 3 91 -2.74417 -4.49341 -5.19165
283 3 91 -1.86449 -5.66813 -5.11517
293 8 95 -5.77461 -1.96688 -7.61316
294 3 95 -6.17262 -1.07134 -7.53197
295 3 95 -6.37876 -2.41908 -8.20509
317 8 103 -0.796105 -0.661511 -7.90614
318 3 103 -0.275392 -0.698119 -8.71825
319 3 103 -0.160655 -0.266454 -7.28966
383 8 125 -7.48083 -6.09592 -4.73961
384 3 125 -8.27835 -6.03179 -4.17936
385 3 125 -7.26804 -5.14961 -4.8875
404 8 132 -5.43854 -7.97558 -1.67095
405 3 132 -5.91623 -8.50364 -2.31457
406 3 132 -4.91437 -8.67378 -1.22014
407 8 133 -5.90137 -8.15064 -5.5911
408 3 133 -5.40061 -7.6769 -6.28254
409 3 133 -6.4687 -7.42761 -5.24104
410 8 134 -0.903989 -8.2971 -2.20754
411 3 134 -0.0652885 -7.83726 -2.4099
412 3 134 -1.02373 -7.98697 -1.29133
419 8 137 -4.5035 -6.38782 -7.32051
420 3 137 -4.05839 -6.03028 -8.09509
421 3 137 -3.92257 -6.05758 -6.61666
422 8 138 -0.0636577 -5.37034 -4.5386
431 10 1 -2.33133 -3.56476 -2.37011
432 9 2 -1.53218 -0.431511 -3.05083
8 4 1 1.38961 -0.296486 -0.00059144
32 8 8 4.68241 -4.41342 -2.35406
33 3 8 5.01443 -4.53057 -1.43917
34 3 8 4.85413 -3.48048 -2.51392
82 3 24 2.12342 -0.464754 -7.714
113 8 35 7.41348 -7.55337 -6.65321
114 3 35 6.7146 -7.68023 -5.97817
115 3 35 8.21101 -7.68846 -6.10787
143 8 45 0.954652 -4.84284 -7.10189
144 3 45 0.635212 -5.10364 -6.21748
145 3 45 0.108605 -4.95309 -7.59418
149 8 47 2.24556 -2.08246 -3.82918
150 3 47 2.29394 -1.11171 -3.7435
151 3 47 3.09725 -2.29842 -4.22217
197 8 63 3.63686 -4.70596 -6.48239
198 3 63 2.67185 -4.54704 -6.57495
199 3 63 3.96423 -3.89031 -6.04492
203 8 65 4.69111 -2.64036 -5.06225
204 3 65 5.58728 -2.76768 -4.69661
205 3 65 4.72859 -1.69821 -5.34092
263 8 85 3.53601 -6.07387 -4.11868
264 3 85 3.52676 -5.5998 -4.97228
265 3 85 3.90408 -5.38291 -3.51747
269 8 87 0.406191 -3.3718 -2.26909
270 3 87 0.995548 -2.85436 -2.85882
271 3 87 0.796488 -3.12294 -1.41652
275 8 89 1.3606 -6.72637 -2.55942
276 3 89 1.59598 -6.28797 -1.71798
277 3 89 2.17496 -6.5867 -3.08436
347 8 113 7.77854 -2.44873 -6.66664
348 3 113 7.63137 -1.96938 -7.5098
349 3 113 7.46816 -3.33506 -6.9385
350 8 114 6.79051 -0.733088 -2.02893
351 3 114 6.6339 -1.58656 -2.47282
352 3 114 6.45427 -0.891653 -1.11947
359 8 117 7.27041 -4.96026 -7.68232
360 3 117 7.3593 -5.84396 -7.273
361 3 117 6.78957 -5.16817 -8.4792
362 8 118 7.08335 -3.04457 -3.63495
363 3 118 7.20852 -4.00427 -3.52098
364 3 118 7.81845 -2.82937 -4.22938
374 8 122 7.20694 -5.93223 -3.23741
375 3 122 6.64882 -5.77774 -2.44524
376 3 122 6.68536 -6.62038 -3.69949
413 8 135 4.28619 -7.67684 -0.176177
414 3 135 4.68359 -6.91272 -0.613405
415 3 135 4.36182 -8.38228 -0.85431
416 8 136 5.57557 -7.74133 -4.63185
417 3 136 4.78041 -7.17909 -4.52897
418 3 136 5.18452 -8.61849 -4.54163
423 3 138 0.40532 -5.92977 -3.88584
424 3 138 0.0978337 -4.48724 -4.17106
23 8 5 -6.67739 0.617609 -0.487173
25 3 5 -7.22315 0.418906 -1.2643
56 8 16 -7.48048 3.59176 -4.72817
57 3 16 -7.4777 4.03472 -5.60664
58 3 16 -7.56781 4.36038 -4.1487
89 8 27 -3.40401 1.42021 -1.39564
90 3 27 -4.24646 1.51844 -1.83511
91 3 27 -2.9068 0.871476 -2.04936
93 3 28 -1.42272 4.3822 -0.0292292
182 8 58 -5.09887 2.75454 -9.0877
183 3 58 -4.43146 2.98129 -8.42666
184 3 58 -5.80002 2.41824 -8.5169
191 8 61 -0.361571 3.28704 -4.51641
192 3 61 -0.715493 2.40068 -4.6536
193 3 61 -0.469691 3.37683 -3.54841
224 8 72 -2.18648 6.0565 -1.74505
225 3 72 -1.66969 6.85629 -1.94735
226 3 72 -2.96229 6.43944 -1.30122
227 8 73 -6.79284 0.607595 -7.2408
228 3 73 -6.15141 1.19861 -6.78703
229 3 73 -7.57529 0.723197 -6.69075
230 8 74 -1.32404 3.48914 -1.83091
231 3 74 -1.67821 4.40347 -1.92729
232 3 74 -2.12881 2.95778 -1.72821
254 8 82 -1.83532 5.29756 -5.82059
255 3 82 -1.29356 4.61317 -5.38336
256 3 82 -1.60123 6.10181 -5.31889
257 8 83 -5.27162 2.58197 -6.11741
258 3 83 -5.8865 2.84725 -5.40718
259 3 83 -4.81784 3.4262 -6.30445
278 8 90 -1.14917 7.90046 -4.84441
279 3 90 -1.69692 8.53401 -5.3045
280 3 90 -1.20843 8.20372 -3.91901
290 8 94 -4.19772 4.95089 -7.17181
291 3 94 -3.39704 5.10936 -6.63369
292 3 94 -3.98966 5.50004 -7.95618
299 8 97 -6.60319 7.32123 -3.41903
300 3 97 -7.41995 6.92861 -3.76282
301 3 97 -6.1938 7.65484 -4.23913
338 8 110 -7.02237 4.94898 -7.05059
339 3 110 -6.05255 5.07678 -7.08854
340 3 110 -7.33288 5.51815 -7.75879
341 8 111 -8.45561 8.21891 -0.199286
342 3 111 -8.23572 7.83149 -1.03083
392 8 128 -4.07589 7.22045 -0.0534069
7 1 1 0.13043 1.17642 -0.886984
10 7 1 2.48687 0.324478 -0.00167369
41 8 11 3.49491 4.29008 -2.90148
42 3 11 2.96368 3.5005 -3.04723
43 3 11 2.81989 4.95406 -2.66179
68 8 20 4.67671 7.28228 -1.99833
69 3 20 4.29765 6.39354 -1.96861
70 3 20 5.59407 7.02796 -2.15697
71 8 21 6.40091 5.08581 -2.2086
72 3 21 5.85239 4.49157 -2.74595
73 3 21 6.33298 4.64453 -1.33145
77 8 23 1.76026 0.809524 -3.81623
78 3 23 0.907852 0.522664 -3.44785
79 3 23 1.59405 0.823514 -4.76681
80 8 24 1.93639 0.0827502 -6.94159
81 3 24 2.81245 0.106206 -6.51109
83 8 25 5.35337 1.31644 -3.27421
84 3 25 4.63155 1.48371 -2.65451
85 3 25 5.91128 0.686545 -2.76978
101 8 31 4.43333 0.0261716 -5.55945
102 3 31 4.56816 0.525403 -4.72726
103 3 31 5.04488 0.536853 -6.1389
107 8 33 1.90165 6.4111 -2.38985
108 3 33 2.39015 7.18999 -2.11392
109 3 33 1.66969 6.63598 -3.31288
140 8 44 5.86662 1.63059 -7.15717
141 3 44 5.20495 1.87218 -7.81046
142 3 44 6.68969 1.74627 -7.67173
209 8 67 2.04226 4.22971 -5.93996
210 3 67 1.95723 5.05026 -5.43386
211 3 67 1.25942 3.74264 -5.62031
218 8 70 7.99739 6.12493 -4.38135
219 3 70 7.47649 5.74542 -3.65832
220 3 70 7.48959 5.84663 -5.13918
239 8 77 4.94148 4.89731 -6.25222
240 3 77 5.5567 4.32781 -5.74135
241 3 77 4.08556 4.56728 -5.93699
248 8 80 6.63024 3.45092 -4.58362
249 3 80 6.2224 2.64492 -4.20748
250 3 80 7.5736 3.22992 -4.5652
266 8 86 1.40784 6.90848 -5.04246
267 3 86 0.510044 7.29547 -4.95182
268 3 86 1.54334 7.00647 -6.00309
302 8 98 1.31102 6.65882 -7.84246
303 3 98 0.414432 6.30925 -7.86898
304 3 98 1.81618 5.88007 -8.1675
305 8 99 4.83457 6.51382 -8.4743
306 3 99 4.84407 5.92168 -7.68348
307 3 99 5.72754 6.87073 -8.44746
308 8 100 2.45493 4.3217 -8.69012
309 3 100 2.41895 4.11878 -7.73208
310 3 100 3.35334 4.033 -8.93058
3 2 1 -1.03975 -1.05922 0.587384
12 3 1 -5.49841 -0.429139 3.58642
35 8 9 -6.09531 -1.93462 0.269373
36 3 9 -5.35842 -2.53978 0.489652
38 8 10 -4.29029 -5.25564 3.72835
39 3 10 -4.73188 -4.64905 3.11953
40 3 10 -4.93587 -5.25529 4.47262
50 8 14 -4.18038 -3.61578 1.26255
51 3 14 -3.62651 -2.96725 1.74122
52 3 14 -3.58415 -4.39007 1.20616
65 8 19 -0.782128 -7.3652 0.411626
66 3 19 -1.06006 -8.19811 0.844248
67 3 19 -1.4527 -6.75501 0.777411
131 8 41 -2.98317 -6.09116 1.46075
132 3 41 -3.81037 -6.55175 1.20048
133 3 41 -3.15953 -5.98404 2.41571
146 8 46 -3.00456 -1.49707 2.75587
147 3 46 -3.68659 -1.85056 3.37172
148 3 46 -3.04798 -0.565227 2.99999
155 8 49 -4.83139 -2.38059 4.63475
156 3 49 -4.20858 -2.11736 5.33326
157 3 49 -5.27087 -3.15255 5.03731
188 8 60 -0.891735 -3.20837 3.26371
189 3 60 -1.48422 -2.44082 3.1849
190 3 60 -0.110839 -2.84094 3.72681
212 8 68 -7.21953 -0.00981489 6.07418
213 3 68 -7.15239 -0.680987 6.76189
214 3 68 -7.96569 -0.39094 5.54837
245 8 79 -6.03589 -4.86287 5.73929
246 3 79 -6.60028 -4.36862 6.36047
247 3 79 -6.12268 -5.74755 6.16415
296 8 96 -5.42552 -7.25676 0.993236
297 3 96 -5.53983 -7.37729 0.0233808
298 3 96 -5.64637 -8.14085 1.30891
314 8 102 -2.66352 -1.03866 5.84006
315 3 102 -3.22902 -0.244416 5.92403
316 3 102 -1.78643 -0.612593 5.69773
320 8 104 -2.43465 -3.52307 6.92206
321 3 104 -2.14062 -4.05545 6.15847
322 3 104 -2.43266 -2.60942 6.5674
323 8 105 -1.82492 -5.18111 4.83608
324 3 105 -1.3713 -4.57178 4.20958
325 3 105 -2.73123 -5.19421 4.4605
332 8 108 -0.971812 -7.67888 5.37412
333 3 108 -1.22605 -6.73338 5.23621
334 3 108 -1.80221 -8.0524 5.69909
371 8 121 -7.43547 -3.84202 7.88931
372 3 121 -7.27669 -4.3704 8.68078
373 3 121 -8.27415 -4.24258 7.59225
377 8 123 -6.82827 -4.88787 0.902471
378 3 123 -6.53106 -5.80244 1.06662
379 3 123 -6.04587 -4.3815 1.15994
380 8 124 -8.02579 -1.40454 2.2053
381 3 124 -7.38595 -1.69872 1.52654
382 3 124 -7.99349 -0.440638 2.07365
425 8 139 -6.44891 -6.98656 7.41822
426 3 139 -7.17708 -7.64124 7.50803
427 3 139 -5.98493 -7.06989 8.25073
9 7 1 1.30839 -1.55553 0.00119019
29 8 7 3.43374 -2.00334 1.53846
30 3 7 3.21751 -2.93152 1.38956
31 3 7 2.78706 -1.5734 0.920746
47 8 13 5.79431 -5.00083 0.02991
48 3 13 5.07413 -5.00549 0.699874
49 3 13 6.43407 -4.43674 0.50127
62 8 18 6.53943 -5.78052 3.20438
63 3 18 5.63842 -5.55658 2.93334
64 3 18 6.68503 -6.60533 2.69853
86 8 26 4.9149 -1.19366 5.20566
87 3 26 4.93347 -0.478803 5.88329
88 3 26 4.17769 -0.880135 4.64323
125 8 39 7.43287 -1.79732 7.63091
126 3 39 6.77394 -1.49927 6.99505
127 3 39 7.89402 -2.46808 7.13853
134 8 42 1.73715 -7.11475 5.5376
135 3 42 1.90465 -7.4924 6.42452
136 3 42 0.800003 -7.34011 5.40958
137 8 43 4.90864 -3.87288 5.84537
138 3 43 4.30657 -3.86898 6.61965
139 3 43 4.89427 -2.9305 5.57005
152 8 48 1.43266 -2.17459 7.97734
153 3 48 0.809464 -2.50491 8.64256
154 3 48 2.1262 -2.86273 8.00962
167 8 53 2.61218 -0.507989 3.71442
168 3 53 2.89593 -0.874089 2.85237
169 3 53 2.10581 -1.26752 4.06891
176 8 56 3.74587 -4.98652 1.83836
177 3 56 3.31605 -4.87919 2.71372
178 3 56 3.01162 -5.36397 1.31012
260 8 84 2.7748 -4.89837 4.40746
261 3 84 3.59858 -4.79564 4.92314
262 3 84 2.42343 -5.75169 4.75725
272 8 88 1.30873 -2.61945 4.86054
273 3 88 1.31998 -2.55048 5.83045
274 3 88 1.79481 -3.46263 4.7085
284 8 92 7.44612 -4.83248 6.15057
285 3 92 6.53106 -4.51904 5.99903
286 3 92 7.62959 -5.21667 5.28153
287 8 93 5.78484 -1.15538 0.500391
288 3 93 4.84891 -1.33729 0.734828
289 3 93 6.21213 -1.87848 1.00334
335 8 109 3.129 -4.34728 7.87595
336 3 109 2.42589 -5.01187 7.89507
337 3 109 3.56277 -4.53654 8.73086
365 8 119 7.03682 -3.3031 1.80951
366 3 119 7.79481 -2.72256 2.038
367 3 119 7.17641 -4.03995 2.42393
368 8 120 7.70986 -1.1617 4.72711
369 3 120 6.73833 -1.16895 4.65035
370 3 120 8.00363 -1.26815 3.80382
389 8 127 2.28096 -8.03602 8.02914
390 3 127 1.95197 -8.81531 8.51693
391 3 127 2.9877 -7.75135 8.61273
398 8 130 1.86754 -6.22293 0.226582
399 3 130 1.01017 -6.65547 0.411884
400 3 130 2.49989 -6.96208 0.265645
401 8 131 6.48388 -8.06147 1.53547
402 3 131 7.21018 -8.17753 0.909871
403 3 131 5.71251 -7.98341 0.958816
2 2 1 -1.96702 0.370952 0.293152
11 8 1 -5.18358 0.422296 3.24035
13 3 1 -4.90362 0.859987 4.0708
17 8 3 -4.38503 4.89127 1.34255
18 3 3 -4.61958 3.93825 1.32868
19 3 3 -3.41355 4.78932 1.33886
44 8 12 -1.35097 2.31586 3.56699
45 3 12 -1.93672 2.99498 3.95841
46 3 12 -0.738868 2.86051 3.04235
53 8 15 -2.83562 4.34108 4.84501
54 3 15 -2.78631 5.30355 4.70822
55 3 15 -3.78714 4.24411 5.04108
92 8 28 -1.5717 4.59873 0.906754
94 3 28 -0.772408 4.20458 1.31598
98 8 30 -1.13992 5.05972 6.99371
99 3 30 -1.91771 5.34514 7.49685
100 3 30 -1.57013 4.61321 6.24191
104 8 32 -4.59249 0.925942 5.89939
105 3 32 -4.56616 1.64669 6.55792
106 3 32 -5.50389 0.59881 6.05085
110 8 34 -3.71608 6.33088 7.49247
111 3 34 -3.25815 6.73564 6.72767
112 3 34 -4.61765 6.33862 7.15004
116 8 36 -7.09379 2.48082 4.81962
117 3 36 -7.80799 2.43803 4.16635
118 3 36 -7.16994 1.60838 5.2476
119 8 37 -7.01457 6.82726 1.7042
120 3 37 -6.31861 6.15907 1.75266
121 3 37 -7.74384 6.39969 2.18173
128 8 40 -5.53379 4.47022 5.80462
129 3 40 -5.37435 3.96762 6.62978
130 3 40 -6.14672 3.84091 5.35809
206 8 66 -4.41539 2.16907 1.24544
207 3 66 -4.37327 1.71037 0.395023
208 3 66 -4.63606 1.45576 1.87553
233 8 75 -0.309642 7.25791 3.72284
234 3 75 -0.464155 8.05783 4.26676
251 8 81 -5.70698 6.99165 4.78468
252 3 81 -5.83124 6.07276 5.07251
253 3 81 -6.57945 7.21105 4.42864
326 8 106 -0.392244 0.288745 5.10355
328 3 106 -0.721729 1.02118 4.53806
343 3 111 -7.87099 7.74397 0.405681
353 8 115 -7.5727 1.33105 1.99452
354 3 115 -7.31396 1.33985 1.04601
355 3 115 -6.69418 1.29498 2.41777
386 8 126 -2.99243 7.16048 4.98313
387 3 126 -3.95169 7.24635 4.77091
388 3 126 -2.56461 7.39303 4.15217
393 3 128 -4.3883 6.39416 0.375729
394 3 128 -3.30688 7.42341 0.519593
395 8 129 -1.76308 7.26715 1.45031
396 3 129 -1.64575 6.32748 1.19527
397 3 129 -1.1726 7.28553 2.23712
5 5 1 0.114831 0.559325 0.000683259
6 1 1 0.135202 1.13016 0.916062
14 8 2 6.05029 3.90332 0.280998
15 3 2 5.68721 3.13418 0.746341
16 3 2 6.17161 4.55447 0.991562
26 8 6 0.719974 3.46289 1.93788
27 3 6 1.32096 3.37664 1.18676
28 3 6 1.3849 3.48515 2.66042
59 8 17 6.36472 6.1363 2.13115
60 3 17 5.42198 6.06759 2.41267
61 3 17 6.41759 7.07984 1.89775
74 8 22 7.26205 3.56859 5.74628
75 3 22 7.18484 3.06616 4.90557
76 3 22 7.66699 4.38817 5.39852
95 8 29 3.95334 5.77679 3.2598
96 3 29 3.8586 6.0418 4.18904
97 3 29 3.51662 4.90411 3.27204
122 8 38 1.10464 6.35902 6.00926
123 3 38 0.987723 7.08121 6.63736
124 3 38 0.397759 5.7418 6.29766
194 8 62 7.20685 2.20838 3.36878
195 3 62 7.89194 1.91356 2.73386
196 3 62 6.39435 2.00889 2.87173
200 8 64 1.4275 3.0047 5.94108
201 3 64 0.632439 2.53675 6.20895
202 3 64 1.64916 3.49773 6.75151
215 8 69 3.85512 6.09227 6.01844
216 3 69 2.87383 6.10013 6.01548
217 3 69 4.03383 6.29704 6.96592
221 8 71 4.97467 1.43603 1.45152
222 3 71 4.08015 1.30654 1.08708
223 3 71 5.39318 0.616293 1.12721
235 3 75 0.383518 6.83428 4.25997
236 8 76 2.85387 3.23334 3.63647
237 3 76 2.37582 3.11541 4.49339
238 3 76 3.36753 2.41603 3.58859
242 8 78 6.30531 7.58037 6.01934
243 3 78 5.50825 7.02049 6.04855
244 3 78 5.98306 8.34985 5.53332
311 8 101 4.78394 3.53109 6.87261
312 3 101 5.71152 3.58464 6.55998
313 3 101 4.40172 4.27912 6.37887
327 3 106 0.520486 0.199015 4.7997
329 8 107 5.23601 0.792228 6.99635
330 3 107 4.89189 1.70148 6.90473
331 3 107 6.14035 0.960825 7.32279
344 8 112 7.91472 5.88152 4.37154
345 3 112 7.43328 6.50296 4.94428
346 3 112 7.34659 5.86937 3.57
356 8 116 7.72366 1.77744 7.82435
357 3 116 8.56527 1.35241 7.63219
358 3 116 7.69025 2.48351 7.14141
428 8 140 8.38599 8.31609 7.89814
429 3 140 7.7033 8.11973 7.23525
430 3 140 7.88225 8.70713 8.63117
ITEM: TIMESTEP
1
ITEM: NUMBER OF ATOMS
432
ITEM: BOX BOUNDS pp pp pp
-9.5000000000000000e+00 9.5000000000000000e+00
-9.5000000000000000e+00 9.5000000000000000e+00
-9.5000000000000000e+00 9.5000000000000000e+00
ITEM: ATOMS id type mol x y z
1 6 1 -1.15504 -0.212784 -0.0053677
4 2 1 -1.30494 -0.495433 -0.997526
20 8 4 -7.44534 -1.60835 -2.27046
21 3 4 -8.3656 -1.25912 -2.32006
22 3 4 -7.64608 -2.59315 -2.21265
24 3 5 -6.37623 -0.285143 -0.252359
37 3 9 -6.3246 -2.22053 -0.626953
158 8 50 -1.70219 -4.8512 -7.8677
159 3 50 -2.14501 -4.19707 -7.31417
160 3 50 -1.88944 -4.45933 -8.72454
161 8 51 -7.45085 -4.27683 -1.67663
162 3 51 -7.31446 -4.47122 -0.721287
163 3 51 -7.69372 -5.16047 -2.05961
164 8 52 -7.09694 -3.41215 -5.25324
165 3 52 -6.30387 -3.00067 -5.63443
166 3 52 -7.79405 -2.98121 -5.76828
170 8 54 -4.82529 -2.77577 -2.30748
171 3 54 -5.50174 -2.17228 -2.67538
172 3 54 -5.27107 -3.6245 -2.40547
173 8 55 -1.89162 -2.85832 -4.92289
174 3 55 -1.7051 -2.03003 -4.49382
175 3 55 -2.28262 -2.57269 -5.74648
179 8 57 -3.03107 -2.46463 -7.25702
180 3 57 -3.96637 -2.22856 -7.45776
181 3 57 -2.52052 -1.80505 -7.77201
185 8 59 -4.06248 -5.66662 -2.61637
186 3 59 -4.58654 -6.45998 -2.26618
187 3 59 -3.93242 -5.89832 -3.53161
281 8 91 -2.82047 -5.45779 -5.17197
282 3 91 -2.74027 -4.48701 -5.16711
283 3 91 -1.85338 -5.67738 -5.13544
293 8 95 -5.77242 -1.96957 -7.61403
294 3 95 -6.14458 -1.08502 -7.5876
295 3 95 -6.36489 -2.41653 -8.24005
317 8 103 -0.795372 -0.661795 -7.903
318 3 103 -0.274577 -0.698101 -8.71023
319 3 103 -0.169733 -0.286348 -7.28395
383 8 125 -7.48238 -6.10081 -4.74261
384 3 125 -8.3134 -6.04601 -4.19897
385 3 125 -7.23586 -5.14889 -4.86781
404 8 132 -5.43757 -7.9794 -1.66922
405 3 132 -5.91109 -8.5044 -2.32138
406 3 132 -4.92435 -8.71431 -1.26584
407 8 133 -5.90147 -8.15005 -5.59933
408 3 133 -5.40697 -7.68779 -6.27027
409 3 133 -6.47039 -7.41855 -5.23399
410 8 134 -0.898635 -8.28834 -2.20741
411 3 134 -0.0770797 -7.84445 -2.44943
412 3 134 -1.02815 -7.97418 -1.28654
419 8 137 -4.5007 -6.38675 -7.32086
420 3 137 -4.05753 -6.05476 -8.09529
421 3 137 -3.91456 -6.0531 -6.63082
422 8 138 -0.0647663 -5.37246 -4.53912
431 10 1 -2.33445 -3.56888 -2.36469
432 9 2 -1.53286 -0.430063 -3.04819
8 4 1 1.38908 -0.303355 0.00294993
32 8 8 4.68649 -4.41449 -2.36059
33 3 8 5.00712 -4.51889 -1.44155
34 3 8 4.87125 -3.45933 -2.47869
82 3 24 2.11798 -0.447429 -7.70905
113 8 35 7.41255 -7.54971 -6.65943
114 3 35 6.70409 -7.68089 -5.95446
115 3 35 8.19685 -7.70299 -6.0952
143 8 45 0.961359 -4.84541 -7.10289
144 3 45 0.649575 -5.11591 -6.19688
145 3 45 0.118486 -4.94559 -7.57725
149 8 47 2.24505 -2.08212 -3.82977
150 3 47 2.31084 -1.0794 -3.74228
151 3 47 3.08539 -2.32154 -4.22657
197 8 63 3.64001 -4.70673 -6.48257
198 3 63 2.67009 -4.53982 -6.54959
199 3 63 3.97721 -3.87714 -6.04894
203 8 65 4.68714 -2.63081 -5.0595
204 3 65 5.59888 -2.75528 -4.69894
205 3 65 4.72642 -1.7115 -5.36783
263 8 85 3.53622 -6.07316 -4.11819
264 3 85 3.51906 -5.59514 -4.95514
265 3 85 3.9201 -5.37187 -3.50826
269 8 87 0.406348 -3.36872 -2.27742
270 3 87 0.985007 -2.87313 -2.87015
271 3 87 0.788304 -3.13563 -1.4163
275 8 89 1.36405 -6.7217 -2.55767
276 3 89 1.58811 -6.28513 -1.72092
277 3 89 2.18912 -6.5841 -3.0592
347 8 113 7.77971 -2.45043 -6.66819
348 3 113 7.61831 -1.95323 -7.52103
349 3 113 7.471 -3.32744 -6.93918
350 8 114 6.79425 -0.737758 -2.02731
351 3 114 6.61988 -1.57897 -2.50664
352 3 114 6.43134 -0.906767 -1.12136
359 8 117 7.267 -4.96461 -7.68386
360 3 117 7.35768 -5.85868 -7.26417
361 3 117 6.79069 -5.17392 -8.44914
362 8 118 7.08064 -3.04416 -3.62821
363 3 118 7.21054 -3.98361 -3.51383
364 3 118 7.81825 -2.82986 -4.24125
374 8 122 7.2 -5.93411 -3.24165
375 3 122 6.63818 -5.77639 -2.45468
376 3 122 6.69782 -6.6158 -3.68554
413 8 135 4.28422 -7.68095 -0.173482
414 3 135 4.66453 -6.90819 -0.589563
415 3 135 4.35133 -8.37668 -0.842116
416 8 136 5.57869 -7.74562 -4.63247
417 3 136 4.77005 -7.1679 -4.54451
418 3 136 5.18202 -8.60088 -4.5595
423 3 138 0.433683 -5.94574 -3.88048
424 3 138 0.104236 -4.47379 -4.16881
23 8 5 -6.6768 0.619353 -0.483004
25 3 5 -7.22674 0.4293 -1.27387
56 8 16 -7.48052 3.59245 -4.72691
57 3 16 -7.46055 4.05487 -5.60286
58 3 16 -7.57085 4.34448 -4.12796
89 8 27 -3.40417 1.41818 -1.39438
90 3 27 -4.2137 1.51987 -1.84066
91 3 27 -2.90721 0.871073 -2.06239
93 3 28 -1.44903 4.373 -0.0558528
182 8 58 -5.09626 2.75529 -9.09052
183 3 58 -4.43321 2.98319 -8.43828
184 3 58 -5.8129 2.42643 -8.51417
191 8 61 -0.362931 3.28804 -4.5117
192 3 61 -0.715999 2.41591 -4.66668
193 3 61 -0.485268 3.38942 -3.5542
224 8 72 -2.18607 6.06034 -1.74758
225 3 72 -1.68378 6.83433 -1.94229
226 3 72 -2.9636 6.43703 -1.30405
227 8 73 -6.78744 0.604693 -7.24538
228 3 73 -6.15542 1.19247 -6.78059
229 3 73 -7.58064 0.739564 -6.72191
230 8 74 -1.33245 3.48726 -1.83649
231 3 74 -1.66809 4.37519 -1.95579
232 3 74 -2.11944 2.94459 -1.6982
254 8 82 -1.83489 5.29132 -5.82005
255 3 82 -1.32195 4.61054 -5.41944
256 3 82 -1.57382 6.09944 -5.32524
257 8 83 -5.27664 2.57807 -6.1242
258 3 83 -5.90652 2.8742 -5.40162
259 3 83 -4.81929 3.43282 -6.30199
278 8 90 -1.15237 7.90658 -4.8444
279 3 90 -1.71017 8.52373 -5.31498
280 3 90 -1.21906 8.20364 -3.91771
290 8 94 -4.19577 4.95265 -7.17264
291 3 94 -3.37926 5.09965 -6.61258
292 3 94 -3.96561 5.5248 -7.97071
299 8 97 -6.60231 7.3191 -3.42273
300 3 97 -7.40807 6.91803 -3.77433
301 3 97 -6.20694 7.6619 -4.22828
338 8 110 -7.01986 4.94713 -7.04751
339 3 110 -6.06584 5.08753 -7.07974
340 3 110 -7.33288 5.51984 -7.7543
341 8 111 -8.46133 8.21592 -0.196932
342 3 111 -8.24692 7.8102 -1.04419
392 8 128 -4.07606 7.21879 -0.049622
7 1 1 0.124349 1.20816 -0.853634
10 7 1 2.48372 0.328662 -0.000810202
41 8 11 3.49314 4.29312 -2.90149
42 3 11 2.95104 3.49441 -3.07083
43 3 11 2.80779 4.95514 -2.65988
68 8 20 4.67448 7.27823 -1.99527
69 3 20 4.27578 6.37708 -1.97755
70 3 20 5.57008 6.97584 -2.15675
71 8 21 6.40575 5.0863 -2.21409
72 3 21 5.86125 4.47591 -2.72247
73 3 21 6.34047 4.66537 -1.32564
77 8 23 1.76063 0.811173 -3.81499
78 3 23 0.907065 0.503547 -3.44626
79 3 23 1.59292 0.809336 -4.7377
80 8 24 1.9387 0.0809801 -6.94182
81 3 24 2.78533 0.123172 -6.53684
83 8 25 5.35008 1.32168 -3.2692
84 3 25 4.61642 1.47522 -2.63229
85 3 25 5.91848 0.699687 -2.77113
101 8 31 4.43146 0.0248111 -5.55783
102 3 31 4.56937 0.542237 -4.7111
103 3 31 5.0357 0.541975 -6.13665
107 8 33 1.90564 6.40991 -2.3941
108 3 33 2.39006 7.18081 -2.10944
109 3 33 1.67682 6.62484 -3.29703
140 8 44 5.87236 1.63789 -7.14752
141 3 44 5.18836 1.87071 -7.79163
142 3 44 6.6804 1.72608 -7.67943
209 8 67 2.04197 4.22553 -5.93696
210 3 67 1.98398 5.03986 -5.44474
211 3 67 1.24592 3.7578 -5.60576
218 8 70 8.00538 6.12492 -4.37831
219 3 70 7.4955 5.7626 -3.65193
220 3 70 7.46491 5.87888 -5.1419
239 8 77 4.93851 4.89485 -6.25412
240 3 77 5.57095 4.32635 -5.76142
241 3 77 4.09226 4.55327 -5.93113
248 8 80 6.6348 3.4565 -4.57957
249 3 80 6.22462 2.65788 -4.20329
250 3 80 7.58018 3.20025 -4.5971
266 8 86 1.41064 6.91272 -5.0448
267 3 86 0.497488 7.30833 -4.92339
268 3 86 1.57589 7.00855 -6.00598
302 8 98 1.31303 6.66144 -7.84168
303 3 98 0.395111 6.30567 -7.85887
304 3 98 1.83536 5.87968 -8.19063
305 8 99 4.83795 6.51268 -8.47604
306 3 99 4.83227 5.89877 -7.66821
307 3 99 5.72574 6.88704 -8.44176
308 8 100 2.45488 4.32214 -8.69486
309 3 100 2.3982 4.10728 -7.75305
310 3 100 3.32159 4.02587 -8.92648
3 2 1 -0.998969 -1.04909 0.591936
12 3 1 -5.49756 -0.442545 3.587
35 8 9 -6.09472 -1.93775 0.266995
36 3 9 -5.36823 -2.52295 0.505624
38 8 10 -4.2895 -5.25877 3.7267
39 3 10 -4.71723 -4.64641 3.08775
40 3 10 -4.92657 -5.27601 4.47972
50 8 14 -4.18285 -3.6162 1.25964
51 3 14 -3.63702 -2.95723 1.74437
52 3 14 -3.60591 -4.39243 1.20978
65 8 19 -0.77904 -7.37149 0.417309
66 3 19 -1.07261 -8.20839 0.840419
67 3 19 -1.44997 -6.7483 0.775296
131 8 41 -2.98553 -6.08951 1.45786
132 3 41 -3.79323 -6.53743 1.17452
133 3 41 -3.13647 -6.01908 2.42753
146 8 46 -3.00362 -1.49537 2.75443
147 3 46 -3.66914 -1.86346 3.37757
148 3 46 -3.04339 -0.553975 3.00193
155 8 49 -4.83076 -2.38118 4.63037
156 3 49 -4.18738 -2.11117 5.28886
157 3 49 -5.27875 -3.13381 5.01872
188 8 60 -0.896784 -3.21029 3.25902
189 3 60 -1.49376 -2.42754 3.17514
190 3 60 -0.131878 -2.82931 3.72992
212 8 68 -7.2282 -0.012836 6.0783
213 3 68 -7.14974 -0.65503 6.78233
214 3 68 -7.93224 -0.416938 5.51534
245 8 79 -6.03344 -4.85897 5.73885
246 3 79 -6.6053 -4.37985 6.35046
247 3 79 -6.0957 -5.75531 6.16706
296 8 96 -5.41917 -7.25514 0.993378
297 3 96 -5.54412 -7.38375 0.0456404
298 3 96 -5.62333 -8.17944 1.32637
314 8 102 -2.66357 -1.04196 5.83981
315 3 102 -3.21392 -0.247308 5.91803
316 3 102 -1.79545 -0.613832 5.70981
320 8 104 -2.43919 -3.52451 6.92385
321 3 104 -2.15428 -4.07463 6.13321
322 3 104 -2.40858 -2.60118 6.58375
323 8 105 -1.83043 -5.17476 4.83673
324 3 105 -1.35795 -4.5695 4.23576
325 3 105 -2.74697 -5.19859 4.44447
332 8 108 -0.970418 -7.67936 5.3747
333 3 108 -1.21835 -6.74384 5.23559
334 3 108 -1.78572 -8.02484 5.68212
371 8 121 -7.43855 -3.8421 7.8861
372 3 121 -7.28626 -4.36277 8.70001
373 3 121 -8.25447 -4.24859 7.61301
377 8 123 -6.82773 -4.89015 0.905163
378 3 123 -6.51295 -5.76226 1.06915
379 3 123 -6.04858 -4.42312 1.15406
380 8 124 -8.02301 -1.39679 2.20606
381 3 124 -7.38171 -1.68803 1.54005
382 3 124 -7.96382 -0.468497 2.08689
425 8 139 -6.451 -6.98862 7.41188
426 3 139 -7.19266 -7.65248 7.50565
427 3 139 -5.95572 -7.08253 8.25125
9 7 1 1.30156 -1.56302 0.00182464
29 8 7 3.44244 -2.00515 1.54157
30 3 7 3.18504 -2.92883 1.39252
31 3 7 2.77415 -1.60051 0.90322
47 8 13 5.79303 -5.00382 0.0287388
48 3 13 5.06313 -5.00765 0.710385
49 3 13 6.43299 -4.43269 0.491245
62 8 18 6.53289 -5.78308 3.20845
63 3 18 5.65622 -5.57479 2.90938
64 3 18 6.69649 -6.606 2.69966
86 8 26 4.91409 -1.19271 5.21423
87 3 26 4.92976 -0.486991 5.8815
88 3 26 4.17712 -0.882425 4.65116
125 8 39 7.42923 -1.79873 7.62883
126 3 39 6.75968 -1.50663 6.98511
127 3 39 7.8967 -2.51192 7.16558
134 8 42 1.73764 -7.11239 5.53191
135 3 42 1.88656 -7.51212 6.40944
136 3 42 0.795547 -7.32684 5.42522
137 8 43 4.9114 -3.87392 5.84632
138 3 43 4.31626 -3.87686 6.60961
139 3 43 4.88669 -2.91066 5.55959
152 8 48 1.43347 -2.17428 7.9737
153 3 48 0.795425 -2.50098 8.65511
154 3 48 2.15747 -2.87782 7.9872
167 8 53 2.61647 -0.518414 3.71724
168 3 53 2.90002 -0.870892 2.88925
169 3 53 2.10896 -1.27687 4.06134
176 8 56 3.74575 -4.99028 1.84385
177 3 56 3.31727 -4.89428 2.71355
178 3 56 3.00346 -5.37079 1.29262
260 8 84 2.77431 -4.8971 4.41102
261 3 84 3.59335 -4.7907 4.93356
262 3 84 2.40962 -5.77227 4.76885
272 8 88 1.30714 -2.6182 4.85972
273 3 88 1.33204 -2.57029 5.84278
274 3 88 1.79545 -3.45962 4.6863
284 8 92 7.44407 -4.8302 6.14373
285 3 92 6.52215 -4.52571 5.9743
286 3 92 7.62481 -5.21063 5.2971
287 8 93 5.79115 -1.14659 0.496499
288 3 93 4.87684 -1.34081 0.730397
289 3 93 6.20027 -1.86948 1.01364
335 8 109 3.12851 -4.34219 7.87808
336 3 109 2.44652 -5.02208 7.87708
337 3 109 3.53814 -4.52609 8.71083
365 8 119 7.0419 -3.29552 1.80492
366 3 119 7.80428 -2.71489 2.04232
367 3 119 7.17609 -4.03734 2.41879
368 8 120 7.70995 -1.16121 4.73413
369 3 120 6.71757 -1.17555 4.626
370 3 120 7.98944 -1.2457 3.78051
389 8 127 2.28304 -8.02761 8.03024
390 3 127 1.94559 -8.80164 8.4991
391 3 127 3.00015 -7.77509 8.58482
398 8 130 1.87086 -6.2224 0.230228
399 3 130 1.00954 -6.64372 0.395003
400 3 130 2.50786 -6.9419 0.241684
401 8 131 6.48207 -8.05504 1.5379
402 3 131 7.18546 -8.19448 0.883204
403 3 131 5.70625 -7.98491 0.947877
2 2 1 -1.96229 0.36782 0.300873
11 8 1 -5.18269 0.422096 3.24655
13 3 1 -4.88031 0.881136 4.06664
17 8 3 -4.38482 4.88871 1.34204
18 3 3 -4.60515 3.92924 1.32991
19 3 3 -3.4232 4.80232 1.33168
44 8 12 -1.35201 2.32203 3.56222
45 3 12 -1.95477 3.01108 3.95343
46 3 12 -0.763323 2.83785 3.08623
53 8 15 -2.84117 4.34138 4.84647
54 3 15 -2.80046 5.31653 4.69107
55 3 15 -3.82556 4.24024 5.05663
92 8 28 -1.57502 4.59898 0.90401
94 3 28 -0.782476 4.18841 1.30602
98 8 30 -1.13991 5.0572 6.99025
99 3 30 -1.93737 5.34809 7.53693
100 3 30 -1.58916 4.63103 6.23487
104 8 32 -4.5936 0.92266 5.89381
105 3 32 -4.56649 1.67949 6.56112
106 3 32 -5.48935 0.57865 6.06336
110 8 34 -3.71563 6.32934 7.49437
111 3 34 -3.25907 6.73942 6.73323
112 3 34 -4.62539 6.32499 7.1706
116 8 36 -7.09416 2.48739 4.81913
117 3 36 -7.79515 2.46392 4.18687
118 3 36 -7.17794 1.58241 5.24681
119 8 37 -7.01836 6.82863 1.70227
120 3 37 -6.32047 6.15398 1.73073
121 3 37 -7.77717 6.35544 2.18687
128 8 40 -5.53773 4.47172 5.80756
129 3 40 -5.36702 3.95451 6.6176
130 3 40 -6.15178 3.84853 5.37419
206 8 66 -4.41536 2.17099 1.24738
207 3 66 -4.35723 1.70772 0.402815
208 3 66 -4.63675 1.43839 1.88428
233 8 75 -0.314428 7.26062 3.72626
234 3 75 -0.452738 8.06639 4.29978
251 8 81 -5.7064 6.99071 4.78433
252 3 81 -5.82005 6.05034 5.12734
253 3 81 -6.58455 7.23366 4.41142
326 8 106 -0.388592 0.287831 5.10361
328 3 106 -0.724321 1.02053 4.53045
343 3 111 -7.88505 7.75262 0.408134
353 8 115 -7.56729 1.33006 2.00142
354 3 115 -7.32574 1.33647 1.04183
355 3 115 -6.69636 1.29812 2.42734
386 8 126 -2.99028 7.16211 4.98184
387 3 126 -3.92792 7.23969 4.76233
388 3 126 -2.57674 7.36204 4.14615
393 3 128 -4.40015 6.34418 0.385224
394 3 128 -3.31659 7.42192 0.519964
395 8 129 -1.76496 7.27229 1.44786
396 3 129 -1.62534 6.33769 1.19789
397 3 129 -1.17871 7.27528 2.23637
5 5 1 0.116987 0.563379 0.00857623
6 1 1 0.13174 1.13261 0.907248
14 8 2 6.05657 3.90479 0.28311
15 3 2 5.67132 3.1501 0.751753
16 3 2 6.18188 4.55947 0.997408
26 8 6 0.717733 3.45828 1.93602
27 3 6 1.33548 3.36768 1.20053
28 3 6 1.36255 3.48569 2.66516
59 8 17 6.36495 6.14266 2.13451
60 3 17 5.45251 6.08078 2.41507
61 3 17 6.39942 7.0783 1.91292
74 8 22 7.26478 3.56537 5.74989
75 3 22 7.19098 3.06228 4.94438
76 3 22 7.64375 4.40659 5.3825
95 8 29 3.94651 5.76869 3.26039
96 3 29 3.82708 6.04122 4.1835
97 3 29 3.52625 4.90381 3.27828
122 8 38 1.10088 6.35828 6.01184
123 3 38 1.00238 7.10691 6.61619
124 3 38 0.397282 5.73467 6.33392
194 8 62 7.20931 2.2114 3.36805
195 3 62 7.90595 1.90453 2.72316
196 3 62 6.41618 2.00835 2.87328
200 8 64 1.43718 3.00554 5.94526
201 3 64 0.615571 2.52208 6.22061
202 3 64 1.63797 3.50917 6.73016
215 8 69 3.85848 6.09517 6.01295
216 3 69 2.87174 6.09625 6.00382
217 3 69 4.01915 6.26795 6.95392
221 8 71 4.97481 1.44008 1.44879
222 3 71 4.08587 1.32831 1.11747
223 3 71 5.40098 0.576235 1.15417
235 3 75 0.393268 6.7999 4.25297
236 8 76 2.85537 3.23588 3.63825
237 3 76 2.39376 3.12481 4.48289
238 3 76 3.3806 2.43683 3.59654
242 8 78 6.30501 7.57978 6.01676
243 3 78 5.51861 7.00435 6.02065
244 3 78 6.02235 8.35735 5.52017
311 8 101 4.78055 3.53313 6.87535
312 3 101 5.70569 3.57907 6.56364
313 3 101 4.43281 4.25847 6.37481
327 3 106 0.505188 0.188102 4.78085
329 8 107 5.23935 0.796007 6.99679
330 3 107 4.92339 1.72742 6.88636
331 3 107 6.13853 0.943623 7.3292