LAMMPS data file via write_data, version 29 Aug 2024, timestep = 0, units = real

432 atoms
10 atom types
289 bonds
6 bond types
155 angles
9 angle types
15 dihedrals
3 dihedral types
1 impropers
1 improper types

-9.5 9.5 xlo xhi
-9.5 9.5 ylo yhi
-9.5 9.5 zlo zhi

Atom Type Labels

1 HB2
2 HC
3 HT
4 CC
5 CT2
6 NH3
7 OC
8 OT
9 CLA
10 POT

Masses

1 1.008
2 1.008
3 1.008
4 12.011
5 12.011
6 14.007
7 15.999
8 15.999
9 35.45
10 39.098

Pair Coeffs # lj/charmmfsw/coul/long

1 0.028 2.38761 0.028 2.38761
2 0.046 0.400014 0.046 0.400014
3 0.046 0.400014 0.046 0.400014
4 0.07 3.56359 0.07 3.56359
5 0.056 3.58141 0.01 3.38542
6 0.2 3.29633 0.2 3.29633
7 0.12 3.02906 0.12 3.02906
8 0.1521 3.15057 0.1521 3.15057
9 0.15 4.04468 0.15 4.04468
10 0.087 3.14265 0.087 3.14265

Bond Coeffs # harmonic

1 200 1.522
2 330 1.08
3 450 0.9572
4 200 1.48
5 403 1.04
6 525 1.26

Angle Coeffs # charmm

1 50 109.5 0 0
2 36 115 0 0
3 30 109.5 20 2.074
4 44 109.5 0 0
5 55 104.52 0 0
6 43.7 110 0 0
7 51.5 107.5 0 0
8 40 118 50 2.388
9 100 124 70 2.225

Dihedral Coeffs # charmmfsw

1 3.2 2 180 1
2 0.05 6 180 1
3 0.1 3 0 1

Improper Coeffs # harmonic

1 96 0

Atoms # full

1 1 6 -0.3 -1.1587945271 -0.2109265959 -0.0005048246 0 0 0
4 1 2 0.33 -1.3049403953 -0.4922429365 -1.0076057164 0 0 0
7 1 1 0.09 0.1304299063 1.1764246073 -0.8869841335 0 0 0
8 1 4 0.34 1.3896129347 -0.2964859402 -0.0005914397 0 0 0
10 1 7 -0.67 2.4868692521 0.3244781511 -0.0016736889 0 0 0
20 4 8 -0.834 -7.4519920233 -1.6178358643 -2.2701594681 0 0 0
21 4 3 0.417 -8.3610833113 -1.2660620407 -2.3288780894 0 0 0
22 4 3 0.417 -7.6210665358 -2.5853903899 -2.2249682393 0 0 0
23 5 8 -0.834 -6.6773868054 0.6176091137 -0.4871731659 0 0 0
24 5 3 0.417 -6.4031119298 -0.2868703643 -0.2374936449 0 0 0
25 5 3 0.417 -7.2231469341 0.4189061884 -1.2642951619 0 0 0
32 8 8 -0.834 4.6824124298 -4.4134202037 -2.3540607179 0 0 0
33 8 3 0.417 5.0144278992 -4.5305712443 -1.4391703864 0 0 0
34 8 3 0.417 4.8541254764 -3.4804750096 -2.5139219656 0 0 0
37 9 3 0.417 -6.3238098631 -2.2335397971 -0.6304864756 0 0 0
41 11 8 -0.834 3.4949115718 4.2900750768 -2.9014773975 0 0 0
42 11 3 0.417 2.9636823032 3.5005037425 -3.0472300928 0 0 0
43 11 3 0.417 2.8198867605 4.9540639978 -2.6617862226 0 0 0
56 16 8 -0.834 -7.4804798237 3.5917580025 -4.7281658324 0 0 0
57 16 3 0.417 -7.4776950153 4.0347176733 -5.6066429317 0 0 0
58 16 3 0.417 -7.5678140865 4.3603793844 -4.1487004239 0 0 0
68 20 8 -0.834 4.6767093565 7.282276148 -1.9983252801 0 0 0
69 20 3 0.417 4.2976495245 6.3935431831 -1.968605031 0 0 0
70 20 3 0.417 5.5940702412 7.0279619321 -2.1569657495 0 0 0
71 21 8 -0.834 6.4009100043 5.0858139764 -2.2085964853 0 0 0
72 21 3 0.417 5.8523867244 4.4915692722 -2.7459485745 0 0 0
73 21 3 0.417 6.3329849311 4.6445293549 -1.3314491628 0 0 0
77 23 8 -0.834 1.7602603619 0.80952414 -3.8162272899 0 0 0
78 23 3 0.417 0.907851935 0.522664463 -3.4478470174 0 0 0
79 23 3 0.417 1.5940536592 0.8235138502 -4.7668096258 0 0 0
80 24 8 -0.834 1.9363876726 0.0827501988 -6.9415916061 0 0 0
81 24 3 0.417 2.8124477664 0.1062060232 -6.5110856814 0 0 0
82 24 3 0.417 2.1234203695 -0.4647540916 -7.7139958903 0 0 0
83 25 8 -0.834 5.3533732093 1.3164433744 -3.2742115169 0 0 0
84 25 3 0.417 4.6315480491 1.483705174 -2.6545089515 0 0 0
85 25 3 0.417 5.9112809925 0.6865451031 -2.7697801416 0 0 0
89 27 8 -0.834 -3.4040124203 1.4202064287 -1.3956420012 0 0 0
90 27 3 0.417 -4.2464623848 1.5184367125 -1.8351056953 0 0 0
91 27 3 0.417 -2.9067996618 0.8714758638 -2.0493600041 0 0 0
93 28 3 0.417 -1.4227231194 4.382199098 -0.0292291577 0 0 0
101 31 8 -0.834 4.4333341889 0.0261716001 -5.5594491783 0 0 0
102 31 3 0.417 4.5681624834 0.5254025031 -4.72725997 0 0 0
103 31 3 0.417 5.0448848391 0.5368526382 -6.1388986448 0 0 0
107 33 8 -0.834 1.901648606 6.4110990157 -2.3898501011 0 0 0
108 33 3 0.417 2.3901540035 7.1899872065 -2.1139199597 0 0 0
109 33 3 0.417 1.6696919517 6.635976672 -3.312884878 0 0 0
113 35 8 -0.834 7.4134784548 -7.5533674691 -6.6532102881 0 0 0
114 35 3 0.417 6.7146007217 -7.680228748 -5.9781653887 0 0 0
115 35 3 0.417 8.2110061258 -7.6884585199 -6.1078716804 0 0 0
140 44 8 -0.834 5.8666164834 1.6305890591 -7.1571749313 0 0 0
141 44 3 0.417 5.2049549416 1.8721752805 -7.8104590168 0 0 0
142 44 3 0.417 6.6896875327 1.7462747885 -7.6717279407 0 0 0
143 45 8 -0.834 0.9546519277 -4.8428392335 -7.1018904203 0 0 0
144 45 3 0.417 0.6352119161 -5.1036384068 -6.2174847689 0 0 0
145 45 3 0.417 0.1086047879 -4.9530896014 -7.594183875 0 0 0
149 47 8 -0.834 2.2455637714 -2.0824626465 -3.8291836953 0 0 0
150 47 3 0.417 2.2939379939 -1.1117142809 -3.7434978465 0 0 0
151 47 3 0.417 3.0972481578 -2.2984183578 -4.2221651957 0 0 0
158 50 8 -0.834 -1.6927632481 -4.8543672022 -7.8668877438 0 0 0
159 50 3 0.417 -2.168257835 -4.2137048024 -7.322083574 0 0 0
160 50 3 0.417 -1.9057003633 -4.4609354999 -8.7400709286 0 0 0
161 51 8 -0.834 -7.4513838709 -4.2829492335 -1.6785641113 0 0 0
162 51 3 0.417 -7.3240698373 -4.4986004357 -0.7270475712 0 0 0
163 51 3 0.417 -7.6850005471 -5.1460663765 -2.0317149808 0 0 0
164 52 8 -0.834 -7.0948895339 -3.4041841531 -5.2504856706 0 0 0
165 52 3 0.417 -6.314724497 -2.9751380981 -5.6285157323 0 0 0
166 52 3 0.417 -7.8011874218 -2.9762685088 -5.7774625601 0 0 0
170 54 8 -0.834 -4.8284116689 -2.7719609672 -2.3102669613 0 0 0
171 54 3 0.417 -5.4898779779 -2.1648187639 -2.6819215317 0 0 0
172 54 3 0.417 -5.2613987579 -3.6326740063 -2.4200406941 0 0 0
173 55 8 -0.834 -1.8903449112 -2.8587621628 -4.9212971573 0 0 0
174 55 3 0.417 -1.694369822 -1.991899642 -4.4845720558 0 0 0
175 55 3 0.417 -2.2679350817 -2.5705489719 -5.7334829658 0 0 0
179 57 8 -0.834 -3.023318799 -2.4624032325 -7.2635794865 0 0 0
180 57 3 0.417 -3.9650938555 -2.23814206 -7.4576333107 0 0 0
181 57 3 0.417 -2.5285089194 -1.7814724605 -7.7706832457 0 0 0
182 58 8 -0.834 -5.0988689334 2.7545395663 -9.0877048401 0 0 0
183 58 3 0.417 -4.4314579021 2.9812925799 -8.4266557056 0 0 0
184 58 3 0.417 -5.8000234421 2.4182357092 -8.5169033341 0 0 0
185 59 8 -0.834 -4.0613735458 -5.6697361328 -2.6098226089 0 0 0
186 59 3 0.417 -4.570639238 -6.4372820028 -2.2744804329 0 0 0
187 59 3 0.417 -3.9343870796 -5.9156802709 -3.5430882731 0 0 0
191 61 8 -0.834 -0.3615706431 3.2870405934 -4.5164099759 0 0 0
192 61 3 0.417 -0.715493378 2.400675696 -4.6535988259 0 0 0
193 61 3 0.417 -0.4696907417 3.3768328 -3.5484118388 0 0 0
197 63 8 -0.834 3.6368602816 -4.7059562969 -6.4823897668 0 0 0
198 63 3 0.417 2.6718496406 -4.5470419765 -6.574952255 0 0 0
199 63 3 0.417 3.9642328746 -3.8903066111 -6.0449181698 0 0 0
203 65 8 -0.834 4.6911057333 -2.6403615425 -5.0622456454 0 0 0
204 65 3 0.417 5.5872819502 -2.7676795616 -4.6966113388 0 0 0
205 65 3 0.417 4.7285927065 -1.6982054199 -5.3409187069 0 0 0
209 67 8 -0.834 2.0422616745 4.2297059191 -5.9399622725 0 0 0
210 67 3 0.417 1.957230696 5.0502602215 -5.4338570159 0 0 0
211 67 3 0.417 1.2594162386 3.7426418613 -5.6203137608 0 0 0
218 70 8 -0.834 7.9973918345 6.1249345406 -4.3813496442 0 0 0
219 70 3 0.417 7.4764875558 5.7454155755 -3.6583219447 0 0 0
220 70 3 0.417 7.4895877718 5.8466330125 -5.1391801965 0 0 0
224 72 8 -0.834 -2.1864814987 6.0565016427 -1.745054467 0 0 0
225 72 3 0.417 -1.6696929776 6.8562867743 -1.9473473399 0 0 0
226 72 3 0.417 -2.9622913636 6.4394351893 -1.3012192058 0 0 0
227 73 8 -0.834 -6.7928409859 0.607595334 -7.2408044757 0 0 0
228 73 3 0.417 -6.1514089389 1.1986102648 -6.7870333768 0 0 0
229 73 3 0.417 -7.5752922844 0.7231970096 -6.6907504117 0 0 0
230 74 8 -0.834 -1.3240359529 3.489137563 -1.8309065541 0 0 0
231 74 3 0.417 -1.6782140345 4.4034660664 -1.9272856199 0 0 0
232 74 3 0.417 -2.1288051466 2.9577829901 -1.7282113989 0 0 0
239 77 8 -0.834 4.9414783118 4.8973122144 -6.2522240207 0 0 0
240 77 3 0.417 5.5567036683 4.3278136422 -5.7413467896 0 0 0
241 77 3 0.417 4.0855559002 4.5672763054 -5.9369906489 0 0 0
248 80 8 -0.834 6.6302431762 3.4509235702 -4.5836208246 0 0 0
249 80 3 0.417 6.2223977975 2.6449173745 -4.2074786524 0 0 0
250 80 3 0.417 7.5735953536 3.2299166187 -4.5652043708 0 0 0
254 82 8 -0.834 -1.8353168028 5.2975648651 -5.8205908438 0 0 0
255 82 3 0.417 -1.2935597687 4.6131720076 -5.383362431 0 0 0
256 82 3 0.417 -1.6012273813 6.1018107427 -5.3188900365 0 0 0
257 83 8 -0.834 -5.2716180058 2.5819681217 -6.117406775 0 0 0
258 83 3 0.417 -5.8864972354 2.8472469115 -5.407183559 0 0 0
259 83 3 0.417 -4.8178356017 3.4262040556 -6.3044535576 0 0 0
263 85 8 -0.834 3.536011069 -6.0738662779 -4.1186823082 0 0 0
264 85 3 0.417 3.5267554947 -5.5998048415 -4.9722810264 0 0 0
265 85 3 0.417 3.9040825338 -5.3829059673 -3.5174653709 0 0 0
266 86 8 -0.834 1.4078444375 6.9084796217 -5.0424648801 0 0 0
267 86 3 0.417 0.5100436273 7.295467084 -4.951818069 0 0 0
268 86 3 0.417 1.5433423716 7.0064688053 -6.0030949363 0 0 0
269 87 8 -0.834 0.406190916 -3.3717998166 -2.2690872473 0 0 0
270 87 3 0.417 0.9955482228 -2.8543560459 -2.8588219254 0 0 0
271 87 3 0.417 0.7964875757 -3.1229354288 -1.4165204322 0 0 0
275 89 8 -0.834 1.3605980214 -6.7263736921 -2.5594156036 0 0 0
276 89 3 0.417 1.5959786821 -6.2879679973 -1.7179808248 0 0 0
277 89 3 0.417 2.1749621568 -6.5866962566 -3.0843635041 0 0 0
278 90 8 -0.834 -1.1491686004 7.9004562483 -4.8444086099 0 0 0
279 90 3 0.417 -1.6969236812 8.534011855 -5.3044965334 0 0 0
280 90 3 0.417 -1.2084275524 8.2037244245 -3.9190097635 0 0 0
281 91 8 -0.834 -2.8180888131 -5.4607621924 -5.1630216697 0 0 0
282 91 3 0.417 -2.7441743829 -4.493407575 -5.1916477354 0 0 0
283 91 3 0.417 -1.8644890169 -5.668133192 -5.1151696855 0 0 0
290 94 8 -0.834 -4.1977170557 4.9508948252 -7.1718078887 0 0 0
291 94 3 0.417 -3.3970379438 5.1093607157 -6.6336858175 0 0 0
292 94 3 0.417 -3.9896647632 5.5000415906 -7.956183469 0 0 0
293 95 8 -0.834 -5.7746126106 -1.9668791566 -7.6131566156 0 0 0
294 95 3 0.417 -6.1726230893 -1.0713353391 -7.5319697124 0 0 0
295 95 3 0.417 -6.3787625931 -2.4190782466 -8.2050907996 0 0 0
299 97 8 -0.834 -6.6031910876 7.3212344143 -3.4190319696 0 0 0
300 97 3 0.417 -7.4199533643 6.9286068884 -3.7628189786 0 0 0
301 97 3 0.417 -6.1937954369 7.6548369948 -4.2391259301 0 0 0
302 98 8 -0.834 1.311017692 6.6588222857 -7.8424602609 0 0 0
303 98 3 0.417 0.4144317003 6.3092510883 -7.8689799811 0 0 0
304 98 3 0.417 1.8161840361 5.8800691881 -8.1675034121 0 0 0
305 99 8 -0.834 4.8345749008 6.513815152 -8.4743043548 0 0 0
306 99 3 0.417 4.8440696143 5.9216815247 -7.6834806428 0 0 0
307 99 3 0.417 5.7275386467 6.8707314322 -8.4474567869 0 0 0
308 100 8 -0.834 2.4549329084 4.3217042985 -8.6901189208 0 0 0
309 100 3 0.417 2.4189505616 4.118782939 -7.7320788888 0 0 0
310 100 3 0.417 3.3533380721 4.0329965762 -8.9305780943 0 0 0
317 103 8 -0.834 -0.7961050825 -0.661511091 -7.9061440905 0 0 0
318 103 3 0.417 -0.2753923661 -0.6981186143 -8.7182536512 0 0 0
319 103 3 0.417 -0.1606551517 -0.266454141 -7.2896633896 0 0 0
338 110 8 -0.834 -7.0223654191 4.9489778383 -7.0505909988 0 0 0
339 110 3 0.417 -6.0525532404 5.0767767741 -7.0885357446 0 0 0
340 110 3 0.417 -7.3328804281 5.5181450574 -7.7587852087 0 0 0
341 111 8 -0.834 -8.4556083668 8.2189076275 -0.199285927 0 0 0
342 111 3 0.417 -8.2357185297 7.8314898485 -1.0308306767 0 0 0
347 113 8 -0.834 7.7785368855 -2.4487347525 -6.6666415409 0 0 0
348 113 3 0.417 7.6313682116 -1.9693780323 -7.5097985247 0 0 0
349 113 3 0.417 7.4681577861 -3.3350616931 -6.9384995948 0 0 0
350 114 8 -0.834 6.7905101471 -0.7330884823 -2.0289314522 0 0 0
351 114 3 0.417 6.6339006994 -1.5865596037 -2.4728215591 0 0 0
352 114 3 0.417 6.4542691355 -0.8916533152 -1.1194713718 0 0 0
359 117 8 -0.834 7.2704104938 -4.9602587449 -7.6823155482 0 0 0
360 117 3 0.417 7.3592984709 -5.8439555116 -7.2729963334 0 0 0
361 117 3 0.417 6.789567556 -5.1681726362 -8.4791950758 0 0 0
362 118 8 -0.834 7.0833491807 -3.0445725282 -3.6349495262 0 0 0
363 118 3 0.417 7.2085163774 -4.0042725184 -3.5209810782 0 0 0
364 118 3 0.417 7.8184458832 -2.8293714246 -4.2293833732 0 0 0
374 122 8 -0.834 7.2069374809 -5.9322275801 -3.237411752 0 0 0
375 122 3 0.417 6.6488197228 -5.7777399344 -2.4452445957 0 0 0
376 122 3 0.417 6.685361199 -6.6203843167 -3.6994939041 0 0 0
383 125 8 -0.834 -7.4808324353 -6.0959226932 -4.7396057161 0 0 0
384 125 3 0.417 -8.2783527867 -6.0317880766 -4.1793575162 0 0 0
385 125 3 0.417 -7.2680408598 -5.1496071509 -4.8875041257 0 0 0
392 128 8 -0.834 -4.0758911572 7.2204466308 -0.0534069305 0 0 0
404 132 8 -0.834 -5.4385409561 -7.975584106 -1.6709456762 0 0 0
405 132 3 0.417 -5.9162289643 -8.5036350473 -2.3145681411 0 0 0
406 132 3 0.417 -4.9143744692 -8.6737793315 -1.2201436005 0 0 0
407 133 8 -0.834 -5.9013701489 -8.1506395041 -5.5910957367 0 0 0
408 133 3 0.417 -5.4006145998 -7.6768996943 -6.2825378354 0 0 0
409 133 3 0.417 -6.4687028142 -7.427606312 -5.2410419299 0 0 0
410 134 8 -0.834 -0.90398941 -8.2971035899 -2.2075435759 0 0 0
411 134 3 0.417 -0.0652885165 -7.8372564656 -2.4099043731 0 0 0
412 134 3 0.417 -1.0237256312 -7.9869746492 -1.2913314175 0 0 0
413 135 8 -0.834 4.2861909222 -7.6768377892 -0.1761769306 0 0 0
414 135 3 0.417 4.6835916158 -6.9127214657 -0.6134047549 0 0 0
415 135 3 0.417 4.3618234371 -8.3822814368 -0.8543101384 0 0 0
416 136 8 -0.834 5.5755691174 -7.7413277482 -4.6318488175 0 0 0
417 136 3 0.417 4.7804114001 -7.1790854245 -4.5289689966 0 0 0
418 136 3 0.417 5.1845215759 -8.6184881295 -4.5416271346 0 0 0
419 137 8 -0.834 -4.5035014385 -6.3878187996 -7.320510355 0 0 0
420 137 3 0.417 -4.0583892111 -6.0302801404 -8.0950908594 0 0 0
421 137 3 0.417 -3.9225730588 -6.0575817288 -6.616658884 0 0 0
422 138 8 -0.834 -0.0636577305 -5.3703388465 -4.5386022409 0 0 0
423 138 3 0.417 0.4053195771 -5.9297745157 -3.8858402176 0 0 0
424 138 3 0.417 0.0978336826 -4.4872406418 -4.1710607883 0 0 0
431 1 10 1 -2.3313255109 -3.5647649962 -2.3701101115 0 0 0
432 2 9 -1 -1.5321789697 -0.4315111409 -3.0508281264 0 0 0
2 1 2 0.33 -1.9670204728 0.3709515347 0.2931517436 0 0 0
3 1 2 0.33 -1.039750185 -1.059222988 0.5873835079 0 0 0
5 1 5 0.13 0.114831198 0.5593247274 0.0006832592 0 0 0
6 1 1 0.09 0.1352015721 1.1301556842 0.9160624252 0 0 0
9 1 7 -0.67 1.3083894457 -1.5555266745 0.0011901914 0 0 0
11 1 8 -0.834 -5.1835761693 0.4222956038 3.2403505136 0 0 0
12 1 3 0.417 -5.4984126998 -0.4291392904 3.5864228739 0 0 0
13 1 3 0.417 -4.903618698 0.8599871748 4.0707950954 0 0 0
14 2 8 -0.834 6.0502941819 3.9033230353 0.2809979533 0 0 0
15 2 3 0.417 5.6872077728 3.1341766121 0.7463406542 0 0 0
16 2 3 0.417 6.1716117239 4.5544736611 0.9915617396 0 0 0
17 3 8 -0.834 -4.3850283144 4.8912716783 1.34255457 0 0 0
18 3 3 0.417 -4.6195840227 3.9382531923 1.3286759345 0 0 0
19 3 3 0.417 -3.4135546569 4.7893180568 1.338856628 0 0 0
26 6 8 -0.834 0.7199737209 3.4628850596 1.9378778966 0 0 0
27 6 3 0.417 1.3209563744 3.3766431176 1.1867560084 0 0 0
28 6 3 0.417 1.3849045241 3.4851549447 2.6604179327 0 0 0
29 7 8 -0.834 3.4337367061 -2.0033360358 1.5384552551 0 0 0
30 7 3 0.417 3.2175054645 -2.9315213443 1.3895552121 0 0 0
31 7 3 0.417 2.7870613784 -1.5733952937 0.9207455437 0 0 0
35 9 8 -0.834 -6.0953123951 -1.9346219662 0.2693725712 0 0 0
36 9 3 0.417 -5.3584180575 -2.5397844369 0.4896523594 0 0 0
38 10 8 -0.834 -4.2902919349 -5.2556443979 3.728349765 0 0 0
39 10 3 0.417 -4.7318816551 -4.6490541376 3.1195289874 0 0 0
40 10 3 0.417 -4.9358700892 -5.2552929078 4.4726196525 0 0 0
44 12 8 -0.834 -1.3509738789 2.315861564 3.5669880755 0 0 0
45 12 3 0.417 -1.9367161206 2.9949837769 3.9584122404 0 0 0
46 12 3 0.417 -0.7388684213 2.8605122681 3.0423527 0 0 0
47 13 8 -0.834 5.7943141815 -5.0008274331 0.0299100428 0 0 0
48 13 3 0.417 5.0741342483 -5.0054903978 0.6998744502 0 0 0
49 13 3 0.417 6.4340651919 -4.4367373272 0.5012698005 0 0 0
50 14 8 -0.834 -4.1803796373 -3.6157769763 1.262548824 0 0 0
51 14 3 0.417 -3.6265127691 -2.9672501832 1.7412200233 0 0 0
52 14 3 0.417 -3.5841524184 -4.3900731367 1.2061595971 0 0 0
53 15 8 -0.834 -2.8356238255 4.3410791744 4.8450082447 0 0 0
54 15 3 0.417 -2.7863091513 5.3035519889 4.7082188334 0 0 0
55 15 3 0.417 -3.7871419455 4.2441136416 5.0410769017 0 0 0
59 17 8 -0.834 6.3647234343 6.1362964234 2.1311547936 0 0 0
60 17 3 0.417 5.4219778096 6.0675893136 2.4126671646 0 0 0
61 17 3 0.417 6.4175929401 7.0798398073 1.8977455104 0 0 0
62 18 8 -0.834 6.53943161 -5.7805182837 3.2043784734 0 0 0
63 18 3 0.417 5.6384201786 -5.5565832427 2.9333412701 0 0 0
64 18 3 0.417 6.6850275791 -6.6053338744 2.6985254161 0 0 0
65 19 8 -0.834 -0.7821282831 -7.3651955024 0.4116256991 0 0 0
66 19 3 0.417 -1.0600554247 -8.198107133 0.8442475559 0 0 0
67 19 3 0.417 -1.4527040884 -6.75500681 0.7774114973 0 0 0
74 22 8 -0.834 7.2620466637 3.5685912802 5.7462844047 0 0 0
75 22 3 0.417 7.1848365944 3.0661630073 4.9055667022 0 0 0
76 22 3 0.417 7.6669894412 4.3881722281 5.3985159688 0 0 0
86 26 8 -0.834 4.9149012736 -1.1936591198 5.2056625728 0 0 0
87 26 3 0.417 4.9334727952 -0.4788025861 5.8832949005 0 0 0
88 26 3 0.417 4.1776865502 -0.8801351832 4.6432282569 0 0 0
92 28 8 -0.834 -1.5717025818 4.5987339964 0.9067540868 0 0 0
94 28 3 0.417 -0.7724076229 4.2045810254 1.3159758955 0 0 0
95 29 8 -0.834 3.9533397011 5.7767890325 3.2598032812 0 0 0
96 29 3 0.417 3.8586023007 6.0417954052 4.1890425764 0 0 0
97 29 3 0.417 3.5166210809 4.9041123116 3.2720407881 0 0 0
98 30 8 -0.834 -1.1399166855 5.0597225742 6.9937117256 0 0 0
99 30 3 0.417 -1.9177116653 5.3451401203 7.4968497688 0 0 0
100 30 3 0.417 -1.5701292075 4.6132062213 6.2419133239 0 0 0
104 32 8 -0.834 -4.5924859308 0.9259415532 5.8993853618 0 0 0
105 32 3 0.417 -4.566164829 1.6466920395 6.5579244328 0 0 0
106 32 3 0.417 -5.5038877052 0.5988102378 6.0508470398 0 0 0
110 34 8 -0.834 -3.7160823811 6.3308782834 7.492470352 0 0 0
111 34 3 0.417 -3.2581500966 6.7356370885 6.7276694203 0 0 0
112 34 3 0.417 -4.6176497866 6.3386223267 7.1500434365 0 0 0
116 36 8 -0.834 -7.0937942773 2.4808230539 4.8196247531 0 0 0
117 36 3 0.417 -7.8079919625 2.4380251605 4.1663508096 0 0 0
118 36 3 0.417 -7.1699415253 1.6083814339 5.2476004298 0 0 0
119 37 8 -0.834 -7.0145737884 6.8272605391 1.7041989137 0 0 0
120 37 3 0.417 -6.3186080699 6.1590682472 1.7526622172 0 0 0
121 37 3 0.417 -7.743842939 6.3996914099 2.1817291576 0 0 0
122 38 8 -0.834 1.104639443 6.359018512 6.0092620967 0 0 0
123 38 3 0.417 0.9877227669 7.0812141922 6.6373603971 0 0 0
124 38 3 0.417 0.3977587032 5.7418037508 6.297663707 0 0 0
125 39 8 -0.834 7.43286535 -1.7973191976 7.6309138536 0 0 0
126 39 3 0.417 6.7739354221 -1.4992682847 6.9950511158 0 0 0
127 39 3 0.417 7.894017964 -2.468082097 7.1385283913 0 0 0
128 40 8 -0.834 -5.5337945542 4.4702231932 5.8046209283 0 0 0
129 40 3 0.417 -5.3743476031 3.9676201223 6.6297849045 0 0 0
130 40 3 0.417 -6.1467220575 3.840909139 5.358087095 0 0 0
131 41 8 -0.834 -2.9831715546 -6.0911591098 1.4607533395 0 0 0
132 41 3 0.417 -3.8103735929 -6.5517491717 1.2004804048 0 0 0
133 41 3 0.417 -3.1595313658 -5.9840390986 2.4157085212 0 0 0
134 42 8 -0.834 1.7371453974 -7.1147502993 5.5375957904 0 0 0
135 42 3 0.417 1.9046502177 -7.4924029491 6.424516366 0 0 0
136 42 3 0.417 0.8000025902 -7.3401051832 5.4095842004 0 0 0
137 43 8 -0.834 4.9086438519 -3.8728785864 5.8453665213 0 0 0
138 43 3 0.417 4.3065747151 -3.868975459 6.6196546942 0 0 0
139 43 3 0.417 4.8942654172 -2.930501721 5.5700486695 0 0 0
146 46 8 -0.834 -3.0045625277 -1.497073457 2.7558677292 0 0 0
147 46 3 0.417 -3.6865876645 -1.8505554002 3.3717200275 0 0 0
148 46 3 0.417 -3.0479770485 -0.5652271501 2.9999940245 0 0 0
152 48 8 -0.834 1.4326598984 -2.1745853905 7.9773393716 0 0 0
153 48 3 0.417 0.8094640521 -2.5049089187 8.6425627743 0 0 0
154 48 3 0.417 2.1261983191 -2.8627342911 8.0096214679 0 0 0
155 49 8 -0.834 -4.8313860309 -2.3805919562 4.6347486126 0 0 0
156 49 3 0.417 -4.2085760201 -2.1173558964 5.3332555353 0 0 0
157 49 3 0.417 -5.2708703911 -3.1525475328 5.0373121174 0 0 0
167 53 8 -0.834 2.6121837554 -0.5079890174 3.7144172928 0 0 0
168 53 3 0.417 2.8959263775 -0.8740891272 2.85237261 0 0 0
169 53 3 0.417 2.1058120272 -1.2675239115 4.0689089747 0 0 0
176 56 8 -0.834 3.7458661172 -4.9865207863 1.8383607833 0 0 0
177 56 3 0.417 3.3160532124 -4.8791851611 2.7137215407 0 0 0
178 56 3 0.417 3.011624394 -5.3639716479 1.3101239502 0 0 0
188 60 8 -0.834 -0.8917352918 -3.2083746903 3.26371145 0 0 0
189 60 3 0.417 -1.4842228788 -2.4408164436 3.1849015195 0 0 0
190 60 3 0.417 -0.1108393464 -2.840942352 3.726812262 0 0 0
194 62 8 -0.834 7.2068474426 2.2083808869 3.3687825763 0 0 0
195 62 3 0.417 7.8919443936 1.9135644914 2.7338566074 0 0 0
196 62 3 0.417 6.3943477028 2.0088866529 2.8717271784 0 0 0
200 64 8 -0.834 1.4274991895 3.004696869 5.941084231 0 0 0
201 64 3 0.417 0.6324386683 2.5367547774 6.2089535098 0 0 0
202 64 3 0.417 1.6491607511 3.4977315049 6.7515131013 0 0 0
206 66 8 -0.834 -4.4153866853 2.1690667945 1.2454432056 0 0 0
207 66 3 0.417 -4.3732658943 1.7103718008 0.3950232998 0 0 0
208 66 3 0.417 -4.6360568033 1.4557648859 1.8755265414 0 0 0
212 68 8 -0.834 -7.2195266142 -0.0098148936 6.0741763371 0 0 0
213 68 3 0.417 -7.1523905847 -0.6809871807 6.7618867632 0 0 0
214 68 3 0.417 -7.9656898454 -0.3909400761 5.5483733195 0 0 0
215 69 8 -0.834 3.8551166751 6.0922650981 6.0184448925 0 0 0
216 69 3 0.417 2.8738274601 6.1001338007 6.015477695 0 0 0
217 69 3 0.417 4.0338294969 6.2970427158 6.9659216285 0 0 0
221 71 8 -0.834 4.9746669774 1.4360304772 1.4515157171 0 0 0
222 71 3 0.417 4.0801504791 1.3065367381 1.0870771469 0 0 0
223 71 3 0.417 5.3931831805 0.6162932901 1.1272092594 0 0 0
233 75 8 -0.834 -0.3096420598 7.2579060985 3.7228371883 0 0 0
234 75 3 0.417 -0.4641546807 8.0578263599 4.2667579298 0 0 0
235 75 3 0.417 0.3835183333 6.8342753271 4.2599679331 0 0 0
236 76 8 -0.834 2.8538705262 3.233341426 3.6364691461 0 0 0
237 76 3 0.417 2.3758192587 3.1154105473 4.4933877349 0 0 0
238 76 3 0.417 3.3675298569 2.4160282717 3.5885872982 0 0 0
242 78 8 -0.834 6.3053073902 7.5803735391 6.019337784 0 0 0
243 78 3 0.417 5.5082459435 7.0204857996 6.0485489845 0 0 0
244 78 3 0.417 5.983064754 8.3498499689 5.5333178729 0 0 0
245 79 8 -0.834 -6.03589052 -4.862865539 5.7392938102 0 0 0
246 79 3 0.417 -6.6002795471 -4.3686175071 6.3604705292 0 0 0
247 79 3 0.417 -6.1226773158 -5.7475514403 6.1641477011 0 0 0
251 81 8 -0.834 -5.706975432 6.9916516971 4.7846764965 0 0 0
252 81 3 0.417 -5.8312430343 6.0727647713 5.0725118363 0 0 0
253 81 3 0.417 -6.5794458679 7.2110475611 4.4286446574 0 0 0
260 84 8 -0.834 2.7748000341 -4.8983666632 4.4074615543 0 0 0
261 84 3 0.417 3.5985845346 -4.7956440911 4.9231443414 0 0 0
262 84 3 0.417 2.423429085 -5.7516901026 4.7572450447 0 0 0
272 88 8 -0.834 1.3087260839 -2.6194500104 4.8605435661 0 0 0
273 88 3 0.417 1.3199802277 -2.5504827322 5.8304534776 0 0 0
274 88 3 0.417 1.7948119376 -3.4626295682 4.7085048136 0 0 0
284 92 8 -0.834 7.4461206124 -4.8324770756 6.1505659761 0 0 0
285 92 3 0.417 6.5310631524 -4.5190431551 5.9990279705 0 0 0
286 92 3 0.417 7.6295855604 -5.2166679304 5.2815318599 0 0 0
287 93 8 -0.834 5.7848403551 -1.1553786626 0.500390826 0 0 0
288 93 3 0.417 4.8489143009 -1.3372913321 0.7348275199 0 0 0
289 93 3 0.417 6.2121266241 -1.8784795974 1.0033419262 0 0 0
296 96 8 -0.834 -5.4255200754 -7.256763578 0.993236424 0 0 0
297 96 3 0.417 -5.5398294316 -7.3772875878 0.0233807999 0 0 0
298 96 3 0.417 -5.6463681561 -8.1408477431 1.3089054845 0 0 0
311 101 8 -0.834 4.7839412195 3.5310872172 6.872614966 0 0 0
312 101 3 0.417 5.7115224931 3.5846389111 6.5599791173 0 0 0
313 101 3 0.417 4.4017189803 4.2791152926 6.3788691296 0 0 0
314 102 8 -0.834 -2.6635246189 -1.0386555261 5.8400594416 0 0 0
315 102 3 0.417 -3.2290231846 -0.2444157432 5.9240342108 0 0 0
316 102 3 0.417 -1.7864279485 -0.6125930723 5.6977309353 0 0 0
320 104 8 -0.834 -2.4346524306 -3.5230660792 6.9220586385 0 0 0
321 104 3 0.417 -2.1406152673 -4.0554483796 6.1584708995 0 0 0
322 104 3 0.417 -2.4326576548 -2.6094197798 6.5673976065 0 0 0
323 105 8 -0.834 -1.8249179424 -5.1811055936 4.8360834387 0 0 0
324 105 3 0.417 -1.3712967544 -4.5717768457 4.2095786977 0 0 0
325 105 3 0.417 -2.7312253185 -5.1942135974 4.4605025906 0 0 0
326 106 8 -0.834 -0.3922435165 0.2887445528 5.1035535627 0 0 0
327 106 3 0.417 0.5204855371 0.1990147661 4.7996973031 0 0 0
328 106 3 0.417 -0.7217286124 1.02117567 4.5380608869 0 0 0
329 107 8 -0.834 5.2360120433 0.7922280543 6.996345387 0 0 0
330 107 3 0.417 4.8918918418 1.7014754257 6.9047285309 0 0 0
331 107 3 0.417 6.1403530772 0.9608254647 7.3227858027 0 0 0
332 108 8 -0.834 -0.9718116964 -7.6788825761 5.3741159956 0 0 0
333 108 3 0.417 -1.2260477142 -6.7333772473 5.2362098445 0 0 0
334 108 3 0.417 -1.8022107452 -8.0524017289 5.6990889956 0 0 0
335 109 8 -0.834 3.1290008227 -4.3472809279 7.8759450169 0 0 0
336 109 3 0.417 2.4258933176 -5.0118651546 7.8950732012 0 0 0
337 109 3 0.417 3.562772409 -4.5365420603 8.7308622089 0 0 0
343 111 3 0.417 -7.8709880131 7.7439691528 0.4056812736 0 0 0
344 112 8 -0.834 7.9147226505 5.8815193861 4.3715366092 0 0 0
345 112 3 0.417 7.4332769504 6.5029554765 4.9442767212 0 0 0
346 112 3 0.417 7.3465918456 5.8693702556 3.5700001914 0 0 0
353 115 8 -0.834 -7.5726967886 1.3310488122 1.9945242728 0 0 0
354 115 3 0.417 -7.3139580111 1.3398523361 1.0460129409 0 0 0
355 115 3 0.417 -6.6941790343 1.2949756706 2.4177681255 0 0 0
356 116 8 -0.834 7.7236628869 1.7774359631 7.8243542839 0 0 0
357 116 3 0.417 8.5652650701 1.3524085437 7.6321913228 0 0 0
358 116 3 0.417 7.6902499257 2.4835086255 7.1414101918 0 0 0
365 119 8 -0.834 7.036815113 -3.3030951234 1.8095071385 0 0 0
366 119 3 0.417 7.7948057919 -2.7225631761 2.0379963453 0 0 0
367 119 3 0.417 7.1764121717 -4.0399520701 2.4239331903 0 0 0
368 120 8 -0.834 7.7098593609 -1.1616958766 4.7271096184 0 0 0
369 120 3 0.417 6.7383269616 -1.1689456888 4.6503515657 0 0 0
370 120 3 0.417 8.0036334852 -1.2681531988 3.8038225849 0 0 0
371 121 8 -0.834 -7.4354702528 -3.8420221964 7.8893052723 0 0 0
372 121 3 0.417 -7.2766872545 -4.3703964766 8.6807824551 0 0 0
373 121 3 0.417 -8.2741503327 -4.242584221 7.5922482334 0 0 0
377 123 8 -0.834 -6.8282740972 -4.8878697737 0.902470759 0 0 0
378 123 3 0.417 -6.5310637552 -5.8024442688 1.0666246379 0 0 0
379 123 3 0.417 -6.0458664332 -4.3814953725 1.1599387187 0 0 0
380 124 8 -0.834 -8.0257921307 -1.4045430977 2.2053009086 0 0 0
381 124 3 0.417 -7.385954324 -1.698722652 1.5265411559 0 0 0
382 124 3 0.417 -7.9934920227 -0.4406375304 2.0736537418 0 0 0
386 126 8 -0.834 -2.9924294051 7.1604825787 4.9831263828 0 0 0
387 126 3 0.417 -3.9516923959 7.2463463901 4.7709139985 0 0 0
388 126 3 0.417 -2.5646086091 7.3930297145 4.1521693493 0 0 0
389 127 8 -0.834 2.2809585182 -8.0360160665 8.0291353349 0 0 0
390 127 3 0.417 1.9519733064 -8.8153074524 8.5169265769 0 0 0
391 127 3 0.417 2.9876971516 -7.751354574 8.6127344567 0 0 0
393 128 3 0.417 -4.3882958437 6.3941604325 0.3757285761 0 0 0
394 128 3 0.417 -3.3068760811 7.4234142519 0.5195929933 0 0 0
395 129 8 -0.834 -1.7630828238 7.2671465915 1.4503123852 0 0 0
396 129 3 0.417 -1.6457537112 6.3274753891 1.195268515 0 0 0
397 129 3 0.417 -1.1725951991 7.2855329325 2.2371245774 0 0 0
398 130 8 -0.834 1.8675371102 -6.2229318521 0.2265817447 0 0 0
399 130 3 0.417 1.0101684538 -6.6554695854 0.4118842582 0 0 0
400 130 3 0.417 2.4998879807 -6.962078465 0.2656445017 0 0 0
401 131 8 -0.834 6.483875629 -8.0614683571 1.5354736507 0 0 0
402 131 3 0.417 7.2101756487 -8.1775259034 0.9098713697 0 0 0
403 131 3 0.417 5.7125058523 -7.9834139153 0.9588160663 0 0 0
425 139 8 -0.834 -6.4489111117 -6.9865553955 7.4182190197 0 0 0
426 139 3 0.417 -7.17708287 -7.641238314 7.5080295421 0 0 0
427 139 3 0.417 -5.9849313495 -7.0698878338 8.2507286466 0 0 0
428 140 8 -0.834 8.3859857677 8.3160877909 7.8981415231 0 0 0
429 140 3 0.417 7.7033029825 8.1197303709 7.2352537887 0 0 0
430 140 3 0.417 7.8822522831 8.7071252525 8.6311675412 0 0 0

Velocities

1 0.00374898196394975 -0.0018485289088698948 -0.004820852100869144
4 -0.00010229727593423469 -0.003002662277449262 0.010117315192075467
7 -0.0061634042314464245 0.03175439254249939 0.033366669263592226
8 -0.0005072000095643521 -0.006970434878756709 0.003672357058820277
10 -0.003167249441389154 0.004263554409481753 0.0007544699253564462
20 0.006835860323555374 0.009419099543385425 -0.00028417307290223344
21 -0.0067103924448685464 0.008198379799032787 0.008992305373307303
22 -0.02534196222468095 -0.007730974077315443 0.012188864132261376
23 0.0006212120892713634 0.0017338925255594943 0.004257329246359077
24 0.026538581630075275 0.0018409812646829314 -0.015456188520487968
25 -0.0046489628087800485 0.009991211335301675 -0.010293067575806622
32 0.004090706217863095 -0.0010166622766587371 -0.006553475318176229
33 -0.007434293398379536 0.011430007950674285 -0.002349165809668944
34 0.017108734682341833 0.020699927746784853 0.035478871087050876
37 -0.001049890511222327 0.012880191672110856 0.0030126033631952057
41 -0.0018093156654945754 0.0031182694319000642 -1.9014169807077173e-05
42 -0.01275453946749933 -0.006259031459414959 -0.023490024227084204
43 -0.012023905100248372 0.0007639928327902196 0.0018464429399839089
56 -9.679104506315036e-05 0.0005688517998375766 0.001277435632476152
57 0.017511411725509102 0.020758383563058553 0.0038127250564764744
58 -0.002605795333983581 -0.014270230122377218 0.02063052697575617
68 -0.002173335522249322 -0.004049048048052351 0.003042455917794537
69 -0.021613961706022863 -0.016662101912649562 -0.00882564579372121
70 -0.02478276425449332 -0.05200807755713488 0.00019131562595861066
71 0.0048381535507562015 0.0004954640810931296 -0.005518474937727911
72 0.009033842035764938 -0.015886834829384237 0.0236932269718773
73 0.0072072330429382376 0.02042369895705208 0.006000077423308485
77 0.00039183648589217785 0.0016851558223101718 0.0012244920374985045
78 -0.0007643191416513555 -0.018982606352446325 0.002030596400670166
79 -0.0008936751284666078 -0.013944650591078446 0.029303689030921322
80 0.002307646654829959 -0.0017284750513577132 -0.0001706146637671137
81 -0.027035480817968617 0.01703878829866724 -0.026628968060366326
82 -0.005548270405806079 0.01674753435350362 0.004013535179492147